 Entering Gaussian System, Link 0=/usr/local/SOFT/gaussian/g16/g16
 Input=cat_only.com
 Output=cat_only.log
 Initial command:
 /usr/local/SOFT/gaussian/g16/l1.exe "/scratch/christian/g16job__1115093__nObX/Gau-1115099.inp" -scrdir="/scratch/christian/g16job__1115093__nObX/"
 Entering Link 1 = /usr/local/SOFT/gaussian/g16/l1.exe PID=   1115101.

 Cite this work as:
 Gaussian 16, Revision A.03,
 M. J. Frisch, G. W. Trucks, H. B. Schlegel, G. E. Scuseria, 
 M. A. Robb, J. R. Cheeseman, G. Scalmani, V. Barone, 
 G. A. Petersson, H. Nakatsuji, X. Li, M. Caricato, A. V. Marenich, 
 J. Bloino, B. G. Janesko, R. Gomperts, B. Mennucci, H. P. Hratchian, 
 J. V. Ortiz, A. F. Izmaylov, J. L. Sonnenberg, D. Williams-Young, 
 F. Ding, F. Lipparini, F. Egidi, J. Goings, B. Peng, A. Petrone, 
 T. Henderson, D. Ranasinghe, V. G. Zakrzewski, J. Gao, N. Rega, 
 G. Zheng, W. Liang, M. Hada, M. Ehara, K. Toyota, R. Fukuda, 
 J. Hasegawa, M. Ishida, T. Nakajima, Y. Honda, O. Kitao, H. Nakai, 
 T. Vreven, K. Throssell, J. A. Montgomery, Jr., J. E. Peralta, 
 F. Ogliaro, M. J. Bearpark, J. J. Heyd, E. N. Brothers, K. N. Kudin, 
 V. N. Staroverov, T. A. Keith, R. Kobayashi, J. Normand, 
 K. Raghavachari, A. P. Rendell, J. C. Burant, S. S. Iyengar, 
 J. Tomasi, M. Cossi, J. M. Millam, M. Klene, C. Adamo, R. Cammi, 
 J. W. Ochterski, R. L. Martin, K. Morokuma, O. Farkas, 
 J. B. Foresman, and D. J. Fox, Gaussian, Inc., Wallingford CT, 2016.
 
 ******************************************
 Gaussian 16:  ES64L-G16RevA.03 25-Dec-2016
                 6-May-2024 
 ******************************************
 %MEM=24GB
 %NPROC=24
 Will use up to   24 processors via shared memory.
 Default route: SCF=Tight MP2=FullDirect MaxDisk=1000GB
 --------------------------------------------------------
 #HF/6-31G* SCF=tight Test Pop=MK iop(6/33=2) iop(6/42=6)
 --------------------------------------------------------
 1/11=1,38=1,172=1/1;
 2/12=2,17=6,18=5,40=1/2;
 3/5=1,6=6,7=1,11=9,25=1,30=1/1,2,3;
 4//1;
 5/5=2,32=2,38=5/2;
 6/7=2,8=2,9=2,10=2,15=8,20=1,28=1,33=2,42=6/1,2;
 99/5=1,9=1/99;
 ---------
 amb2oniom
 ---------
 Symbolic Z-matrix:
 Charge =  1 Multiplicity = 1
 C-c3i-0.0065000      0     38.61     37.04     38.74    L 
 H-h1i-0.0652000      0     38.19     36.41     39.54    L 
 H-h1i-0.0652000      0     37.95     37.74     38.22    L 
 H-h1i-0.0652000      0     39.53     37.44     39.19    L 
 O-osi--0.3521000     0     39.09     36.25     37.59    L 
 C-c3i-0.0668000      0     40.31     35.47     37.74    L 
 H-h1i-0.0602000      0     41.18     36.1      37.52    L 
 H-h1i-0.0602000      0     40.35     34.89     38.67    L 
 C-c3i-0.0445000      0     40.31     34.51     36.56    L 
 H-h1i-0.0764000      0     40.13     35.1      35.66    L 
 H-h1i-0.0764000      0     41.28     34.03     36.39    L 
 O-osi--0.3409000     0     39.29     33.53     36.78    L 
 C-c3i-0.0625000      0     38.92     32.63     35.74    L 
 H-h1i-0.0643000      0     38.07     32.07     36.16    L 
 H-h1i-0.0643000      0     39.71     31.97     35.37    L 
 C-c3i--0.0200000     0     38.39     33.46     34.59    L 
 H-h1i-0.1005000      0     38.22     32.79     33.74    L 
 H-h1i-0.1005000      0     39.16     34.08     34.13    L 
 N-nai-0.0634000      0     37.16     34.2      34.81    L 
 C-cci--0.0221000     0     37.21     35.6      34.83    L 
 H-h5i-0.2275000      0     38.       36.32     34.7     L 
 N-nai-0.0634000      0     35.91     35.92     35.12    L 
 C-cci--0.1806000     0     35.13     34.78     35.4     L 
 H-h4i-0.2488000      0     34.11     34.84     35.74    L 
 C-cdi--0.1806000     0     35.95     33.68     35.17    L 
 H-h4i-0.2488000      0     35.76     32.63     35.36    L 
 C-c3i--0.0200000     0     35.33     37.25     35.03    L 
 H-h1i-0.1005000      0     35.94     37.89     35.68    L 
 H-h1i-0.1005000      0     35.54     37.63     34.02    L 
 C-c3i-0.0625000      0     33.85     37.44     35.44    L 
 H-h1i-0.0643000      0     33.65     37.06     36.45    L 
 H-h1i-0.0643000      0     33.7      38.52     35.43    L 
 O-osi--0.3409000     0     33.03     36.95     34.41    L 
 C-c3i-0.0445000      0     31.69     37.32     34.56    L 
 H-h1i-0.0764000      0     31.57     38.39     34.78    L 
 H-h1i-0.0764000      0     31.25     36.7      35.35    L 
 C-c3i-0.0668000      0     31.       37.16     33.19    L 
 H-h1i-0.0602000      0     30.       37.6      33.29    L 
 H-h1i-0.0602000      0     31.64     37.68     32.47    L 
 O-osi--0.3521000     0     30.94     35.79     33.      L 
 C-c3i-0.0065000      0     30.3      35.37     31.75    L 
 H-h1i-0.0652000      0     30.7      34.36     31.6     L 
 H-h1i-0.0652000      0     30.7      36.02     30.96    L 
 H-h1i-0.0652000      0     29.21     35.46     31.81    L 
 
 MM Charge=              1.0000 electrons
 MM Dipole moment (Debye):
    X=            175.6020    Y=            171.5916    Z=            168.2560  Tot=            297.6405
 MM Quadrupole moment (Debye-Ang):
   XX=           6477.5420   YY=           6163.3296   ZZ=           5915.3383
   XY=           6257.1903   XZ=           6160.0124   YZ=           6016.8249
 MM Traceless Quadrupole moment (Debye-Ang):
   XX=            292.1387   YY=            -22.0737   ZZ=           -270.0650
   XY=           6257.1903   XZ=           6160.0124   YZ=           6016.8249
 MM Octapole moment (Debye-Ang**2):
  XXX=         240916.4709  YYY=         222524.6890  ZZZ=         208722.4150  XYY=         224154.4527
  XXY=         230266.4058  XXZ=         227503.1435  XZZ=         216837.6935  YZZ=         211759.7305
  YYZ=         216324.6823  XYZ=         219736.0147
 MM Hexadecapole moment (Debye-Ang**3):
 XXXX=        9028464.8684 YYYY=        8073457.0882 ZZZZ=        7391916.9699 XXXY=        8545663.9810
 XXXZ=        8470478.1629 YYYX=        8071121.5783 YYYZ=        7817549.2393 ZZZX=        7659789.4469
 ZZZY=        7480555.4524 XXYY=        8228520.0057 XXZZ=        8017009.5805 YYZZ=        7621317.7717
 XXYZ=        8096800.8788 YYXZ=        7880017.6399 ZZXY=        7743962.0504
                          Input orientation:                          
 ---------------------------------------------------------------------
 Center     Atomic      Atomic             Coordinates (Angstroms)
 Number     Number       Type             X           Y           Z
 ---------------------------------------------------------------------
      1          6    90000001       38.610000   37.040000   38.740000
      2          1    90000002       38.190000   36.410000   39.540000
      3          1    90000002       37.950000   37.740000   38.220000
      4          1    90000002       39.530000   37.440000   39.190000
      5          8    90000003       39.090000   36.250000   37.590000
      6          6    90000001       40.310000   35.470000   37.740000
      7          1    90000002       41.180000   36.100000   37.520000
      8          1    90000002       40.350000   34.890000   38.670000
      9          6    90000001       40.310000   34.510000   36.560000
     10          1    90000002       40.130000   35.100000   35.660000
     11          1    90000002       41.280000   34.030000   36.390000
     12          8    90000003       39.290000   33.530000   36.780000
     13          6    90000001       38.920000   32.630000   35.740000
     14          1    90000002       38.070000   32.070000   36.160000
     15          1    90000002       39.710000   31.970000   35.370000
     16          6    90000001       38.390000   33.460000   34.590000
     17          1    90000002       38.220000   32.790000   33.740000
     18          1    90000002       39.160000   34.080000   34.130000
     19          7    90000004       37.160000   34.200000   34.810000
     20          6    90000005       37.210000   35.600000   34.830000
     21          1    90000006       38.000000   36.320000   34.700000
     22          7    90000004       35.910000   35.920000   35.120000
     23          6    90000005       35.130000   34.780000   35.400000
     24          1    90000007       34.110000   34.840000   35.740000
     25          6    90000008       35.950000   33.680000   35.170000
     26          1    90000007       35.760000   32.630000   35.360000
     27          6    90000001       35.330000   37.250000   35.030000
     28          1    90000002       35.940000   37.890000   35.680000
     29          1    90000002       35.540000   37.630000   34.020000
     30          6    90000001       33.850000   37.440000   35.440000
     31          1    90000002       33.650000   37.060000   36.450000
     32          1    90000002       33.700000   38.520000   35.430000
     33          8    90000003       33.030000   36.950000   34.410000
     34          6    90000001       31.690000   37.320000   34.560000
     35          1    90000002       31.570000   38.390000   34.780000
     36          1    90000002       31.250000   36.700000   35.350000
     37          6    90000001       31.000000   37.160000   33.190000
     38          1    90000002       30.000000   37.600000   33.290000
     39          1    90000002       31.640000   37.680000   32.470000
     40          8    90000003       30.940000   35.790000   33.000000
     41          6    90000001       30.300000   35.370000   31.750000
     42          1    90000002       30.700000   34.360000   31.600000
     43          1    90000002       30.700000   36.020000   30.960000
     44          1    90000002       29.210000   35.460000   31.810000
 ---------------------------------------------------------------------
                    Distance matrix (angstroms):
                    1          2          3          4          5
     1  C    0.000000
     2  H    1.101499   0.000000
     3  H    1.093618   1.889153   0.000000
     4  H    1.099500   1.725978   1.878111   0.000000
     5  O    1.475466   2.153625   1.979040   2.041984   0.000000
     6  C    2.520893   2.935643   3.309517   2.567450   1.455782
     7  H    2.996148   3.621685   3.689512   2.703146   2.096545
     8  H    2.766767   2.780809   3.752999   2.728608   2.145600
     9  C    3.747439   4.121262   4.331062   4.013751   2.361546
    10  H    3.944667   4.531457   4.274997   4.277441   2.475682
    11  H    4.659560   5.013482   5.310546   4.746641   3.341332
    12  O    4.077266   4.137874   4.646859   4.599326   2.845083
    13  C    5.342677   5.409371   5.762239   5.950689   4.068882
    14  H    5.625736   5.502218   6.033813   6.336355   4.534060
    15  H    6.186421   6.277969   6.671806   6.674257   4.861193
    16  C    5.485189   5.765848   5.629289   6.188699   4.156212
    17  H    6.573781   6.837053   6.681751   7.282932   5.248905
    18  H    5.506015   5.969749   5.620302   6.085236   4.084777
    19  N    5.060929   5.321457   4.978333   5.941288   3.956741
    20  C    4.395646   4.878586   4.076678   5.270446   3.402132
    21  H    4.148747   4.844564   3.795958   4.873951   3.089515
    22  N    4.652827   4.997489   4.133280   5.655060   4.040074
    23  C    5.326688   5.400009   4.966528   6.387464   4.758004
    24  H    5.838664   5.792348   5.413502   6.931010   5.496453
    25  C    5.577643   5.618487   5.457664   6.566156   4.724500
    26  H    6.244598   6.137239   6.252024   7.212344   5.400574
    27  C    4.956471   5.406043   4.156994   5.914533   4.657381
    28  H    4.149096   4.706644   3.242561   5.040903   4.032394
    29  H    5.661396   6.243501   4.843573   6.533384   5.220326
    30  C    5.805825   6.058589   4.962701   6.806240   5.787590
    31  H    5.463158   5.530118   4.699500   6.498184   5.616876
    32  H    6.103655   6.442383   5.143442   7.020890   6.234629
    33  O    7.063526   7.296170   6.272687   8.083223   6.879390
    34  C    8.089326   8.238841   7.263580   9.105872   8.067577
    35  H    8.189365   8.390614   7.277397   9.149437   8.308195
    36  H    8.110321   8.111954   7.362642   9.157052   8.166131
    37  C    9.419607   9.621907   8.598826  10.432608   9.253983
    38  H   10.205303  10.370858   9.355587  11.209661  10.145965
    39  H    9.396989   9.721126   8.537107  10.366682   9.152147
    40  O    9.661211   9.783583   8.954943  10.715722   9.364945
    41  C   10.986587  11.136328  10.295645  12.034592  10.589811
    42  H   10.987725  11.106133  10.383222  12.044227  10.480663
    43  H   11.141674  11.395991  10.403293  12.153938  10.695882
    44  H   11.784791  11.886791  11.075834  12.840841  11.473748
                    6          7          8          9         10
     6  C    0.000000
     7  H    1.096449   0.000000
     8  H    1.096768   1.864269   0.000000
     9  C    1.521184   2.051000   2.144318   0.000000
    10  H    2.120307   2.358410   3.025326   1.091100   0.000000
    11  H    2.199318   2.360466   2.608237   1.095536   1.732137
    12  O    2.392823   3.274844   2.558378   1.431503   2.103545
    13  C    3.741350   4.507427   3.967039   2.477680   2.751618
    14  H    4.367379   5.269023   4.410317   3.336345   3.697905
    15  H    4.269297   4.882653   4.452640   2.868397   3.171340
    16  C    4.201071   4.831004   4.746883   2.944452   2.619561
    17  H    5.248857   5.831475   5.766437   3.908823   3.559579
    18  H    4.035678   4.433159   4.762751   2.722554   2.078990
    19  N    4.485566   5.207159   5.054879   3.616780   3.217670
    20  C    4.253822   4.821514   5.010918   3.713624   3.076573
    21  H    3.911547   4.255961   4.829938   3.474450   2.635697
    22  N    5.140710   5.793557   5.777283   4.839597   4.332713
    23  C    5.725740   6.545174   6.160633   5.315158   5.016971
    24  H    6.544990   7.398709   6.893838   6.262691   6.026143
    25  C    5.368296   6.223488   5.751009   4.650871   4.441723
    26  H    5.867921   6.788439   6.093587   5.067238   5.028698
    27  C    5.942466   6.461045   6.634727   5.886332   5.297112
    28  H    5.403416   5.835006   6.114589   5.594256   5.033945
    29  H    6.423153   6.811791   7.229537   6.240104   5.491685
    30  C    7.134599   7.736336   7.693205   7.181288   6.705401
    31  H    6.967625   7.665990   7.384260   7.132335   6.815871
    32  H    7.637454   8.134796   8.239964   7.813392   7.286577
    33  O    8.141112   8.764536   8.716284   7.973362   7.442782
    34  C    9.372262  10.015493   9.889014   9.284422   8.796136
    35  H    9.678616  10.252014  10.221081   9.726788   9.212605
    36  H    9.450323  10.182033   9.854365   9.399138   9.028317
    37  C   10.499271  11.113276  11.072750  10.249659   9.679948
    38  H   11.429589  12.047211  11.975433  11.248871  10.699710
    39  H   10.383925  10.909193  11.049353  10.096826   9.429348
    40  O   10.505565  11.197504  11.023021  10.104895   9.592070
    41  C   11.665770  12.336945  12.211441  11.138932  10.582528
    42  H   11.457914  12.161595  11.974485  10.815554  10.293498
    43  H   11.773827  12.364077  12.403366  11.224625  10.576450
    44  H   12.584713  13.277598  13.095194  12.110945  11.584408
                   11         12         13         14         15
    11  H    0.000000
    12  O    2.088588   0.000000
    13  C    2.819947   1.424254   0.000000
    14  H    3.768103   2.001100   1.101136   0.000000
    15  H    2.783685   2.144318   1.093892   1.823102   0.000000
    16  C    3.452101   2.368755   1.514034   2.121179   2.137966
    17  H    4.233639   3.306675   2.124994   2.529288   2.355716
    18  H    3.099113   2.709594   2.179954   3.057630   2.508426
    19  N    4.415846   2.977700   2.535232   2.680951   3.433511
    20  C    4.632861   3.523322   3.545857   3.869031   4.440552
    21  H    4.342649   3.711415   3.942601   4.494330   4.721811
    22  N    5.832830   4.460056   4.502066   4.535383   5.486802
    23  C    6.274161   4.557686   4.370606   4.070049   5.373397
    24  H    7.244826   5.443354   5.293411   4.850866   6.303475
    25  C    5.479033   3.710822   3.201297   2.840176   4.135420
    26  H    5.787167   3.909898   3.182766   2.507927   4.004772
    27  C    6.900761   5.708108   5.893776   5.967990   6.868653
    28  H    6.627164   5.607326   6.045792   6.216084   7.025340
    29  H    7.178057   6.204039   6.275572   6.472565   7.158701
    30  C    8.230158   6.832079   6.995070   6.867583   8.016570
    31  H    8.209836   6.661787   6.921120   6.672376   7.987371
    32  H    8.862172   7.613849   7.876332   7.825107   8.889668
    33  O    8.972697   7.516708   7.424513   7.230387   8.387157
    34  C   10.302480   8.777955   8.698356   8.415872   9.674658
    35  H   10.765027   9.339058   9.387316   9.170431  10.383838
    36  H   10.431270   8.759874   8.691714   8.282838   9.692518
    37  C   11.212283   9.735969   9.473637   9.204015  10.370757
    38  H   12.230834  10.726094  10.500943  10.195229  11.415227
    39  H   11.028078   9.711905   9.444247   9.296940  10.302378
    40  O   11.022944   9.440260   9.009639   8.640654   9.855060
    41  C   11.995232  10.464540   9.885955   9.524232  10.640136
    42  H   11.618494  10.065257   9.364876   8.964073  10.055103
    43  H   12.057421  10.670548  10.094994   9.846796  10.818073
    44  H   12.988695  11.403166  10.850710  10.436197  11.623412
                   16         17         18         19         20
    16  C    0.000000
    17  H    1.095582   0.000000
    18  H    1.090367   1.643107   0.000000
    19  N    1.452205   2.063153   2.115845   0.000000
    20  C    2.455524   3.178726   2.569611   1.401035   0.000000
    21  H    2.888564   3.664819   2.586136   2.283002   1.076754
    22  N    3.533115   4.127639   3.863703   2.148721   1.369854
    23  C    3.609169   4.032840   4.282966   2.192122   2.307314
    24  H    4.641692   5.009451   5.354643   3.252230   3.318991
    25  C    2.517618   2.826641   3.397896   1.365320   2.321551
    26  H    2.863337   2.949847   3.895562   2.174258   3.347282
    27  C    4.890941   5.468802   5.052504   3.563678   2.509362
    28  H    5.178368   5.913713   5.223696   3.982637   2.753089
    29  H    5.082942   5.539531   5.071390   3.874713   2.750618
    30  C    6.097089   6.603741   6.418863   4.674463   3.879085
    31  H    6.235960   6.816297   6.680037   4.815527   4.174877
    32  H    6.950201   7.491288   7.156480   5.569416   4.605052
    33  O    6.398601   6.685103   6.774378   4.977891   4.412630
    34  C    7.732432   7.989631   8.153735   6.302206   5.788065
    35  H    8.417446   8.755804   8.752525   6.986065   6.292551
    36  H    7.877487   8.152368   8.421455   6.439697   6.082927
    37  C    8.382249   8.457411   8.772434   7.023646   6.609637
    38  H    9.445724   9.534516   9.848939   8.070688   7.639090
    39  H    8.238040   8.295866   8.500941   6.932272   6.396945
    40  O    7.966147   7.908603   8.471682   6.670277   6.534363
    41  C    8.784179   8.564047   9.264346   7.602112   7.568844
    42  H    8.299771   7.974641   8.834642   7.215352   7.372286
    43  H    8.880687   8.643593   9.240352   7.737345   7.585077
    44  H    9.798000   9.593430  10.309670   8.590116   8.552193
                   21         22         23         24         25
    21  H    0.000000
    22  N    2.168986   0.000000
    23  C    3.331441   1.409397   0.000000
    24  H    4.290000   2.188790   1.076847   0.000000
    25  C    3.375352   2.240915   1.391151   2.248577   0.000000
    26  H    4.366841   3.302151   2.240759   2.784062   1.083836
    27  C    2.846524   1.453754   2.505554   2.792955   3.626141
    28  H    2.769278   2.048268   3.225926   3.557387   4.240790
    29  H    2.868815   2.066640   3.192961   3.575947   4.134380
    30  C    4.361708   2.580000   2.952220   2.630133   4.315148
    31  H    4.746852   2.859388   2.913984   2.375731   4.284017
    32  H    4.884967   3.426398   4.004173   3.715723   5.343753
    33  O    5.018157   3.139968   3.177892   2.717977   4.449371
    34  C    6.390282   4.481294   4.357844   3.660492   5.636426
    35  H    6.755457   5.005207   5.107847   4.469418   6.443648
    36  H    6.791863   4.730423   4.329353   3.433846   5.589526
    37  C    7.210111   5.419465   5.254084   4.642952   6.366577
    38  H    8.223533   6.410881   6.222652   5.523785   7.369077
    39  H    6.875471   5.324754   5.401389   4.985920   6.470402
    40  O    7.281106   5.404831   4.933173   4.296394   5.853298
    41  C    8.300301   6.567458   6.082721   5.542301   6.817258
    42  H    8.169553   6.478279   5.851607   5.384988   6.385123
    43  H    8.207777   6.667811   6.393442   5.989065   7.124760
    44  H    9.292782   7.487169   6.956788   6.311838   7.738579
                   26         27         28         29         30
    26  H    0.000000
    27  C    4.651688   0.000000
    28  H    5.272798   1.097360   0.000000
    29  H    5.181120   1.099363   1.727194   0.000000
    30  C    5.175964   1.547450   2.151325   2.215536   0.000000
    31  H    5.026440   2.207918   2.554584   3.130799   1.097497
    32  H    6.240240   2.104709   2.340299   2.483103   1.090413
    33  O    5.197865   2.400916   3.311284   2.629563   1.404778
    34  C    6.261070   3.670885   4.431907   3.900026   2.335466
    35  H    7.146335   3.936966   4.489644   4.112919   2.556658
    36  H    6.074957   4.129322   4.849856   4.586709   2.704755
    37  C    6.920072   4.705592   5.580018   4.639116   3.641895
    38  H    7.884377   5.617740   6.409353   5.587969   4.412550
    39  H    7.129446   4.511607   5.370121   4.197023   3.709798
    40  O    6.227969   5.052188   6.049165   5.058261   4.140556
    41  C    7.095865   6.292353   7.321537   6.141506   5.522997
    42  H    6.537132   6.446231   7.520964   6.322571   5.844185
    43  H    7.513701   6.286072   7.296088   5.948218   5.657676
    44  H    7.969561   7.143312   8.134783   7.047120   6.215054
                   31         32         33         34         35
    31  H    0.000000
    32  H    1.781713   0.000000
    33  O    2.134971   1.988517   0.000000
    34  C    2.735197   2.497399   1.398213   0.000000
    35  H    2.980638   2.230762   2.083771   1.098954   0.000000
    36  H    2.664507   3.053080   2.028423   1.096403   1.812015
    37  C    4.202392   3.762605   2.377688   1.542271   2.089474
    38  H    4.857952   4.372185   3.295118   2.132463   2.304148
    39  H    4.501655   3.702810   2.495716   2.121367   2.417664
    40  O    4.567220   4.579891   2.775212   2.310195   3.213300
    41  C    6.014034   5.918184   4.126124   3.691978   4.462533
    42  H    6.286096   6.401133   4.475835   4.301546   5.206746
    43  H    6.318560   5.935562   4.265712   3.953492   4.578886
    44  H    6.618399   6.529020   4.855152   4.143972   4.793266
                   36         37         38         39         40
    36  H    0.000000
    37  C    2.222544   0.000000
    38  H    2.572178   1.097087   0.000000
    39  H    3.067067   1.094715   1.835320   0.000000
    40  O    2.539035   1.384413   2.060049   2.083987   0.000000
    41  C    3.953657   2.401604   2.726628   2.765881   1.465776
    42  H    4.454279   3.233899   3.720712   3.558497   2.015564
    43  H    4.476271   2.522400   2.900914   2.432961   2.066906
    44  H    4.269754   2.828162   2.719209   3.356918   2.125535
                   41         42         43         44
    41  C    0.000000
    42  H    1.096631   0.000000
    43  H    1.098453   1.779101   0.000000
    44  H    1.095354   1.863921   1.804494   0.000000
 Stoichiometry    C13H25N2O4(1+)
 Framework group  C1[X(C13H25N2O4)]
 Deg. of freedom   126
 Full point group                 C1      NOp   1
 Largest Abelian subgroup         C1      NOp   1
 Largest concise Abelian subgroup C1      NOp   1
                         Standard orientation:                         
 ---------------------------------------------------------------------
 Center     Atomic      Atomic             Coordinates (Angstroms)
 Number     Number       Type             X           Y           Z
 ---------------------------------------------------------------------
      1          6    90000001       -3.510881    2.969821   -0.629838
      2          1    90000002       -3.575346    2.886698   -1.726303
      3          1    90000002       -2.575348    3.317027   -0.182372
      4          1    90000002       -4.435863    3.500337   -0.361767
      5          8    90000003       -3.640079    1.664478    0.045726
      6          6    90000001       -4.946658    1.023448    0.080851
      7          1    90000002       -5.515826    1.393028    0.942046
      8          1    90000002       -5.465364    1.028265   -0.885493
      9          6    90000001       -4.666912   -0.416714    0.482940
     10          1    90000002       -4.032609   -0.389878    1.370318
     11          1    90000002       -5.563467   -0.962485    0.796823
     12          8    90000003       -4.031941   -1.073998   -0.618872
     13          6    90000001       -3.464190   -2.369760   -0.454063
     14          1    90000002       -2.978569   -2.574526   -1.420883
     15          1    90000002       -4.155321   -3.164962   -0.159796
     16          6    90000001       -2.369747   -2.255800    0.585892
     17          1    90000002       -2.011573   -3.266294    0.811532
     18          1    90000002       -2.755986   -2.017627    1.577353
     19          7    90000004       -1.208857   -1.450515    0.250110
     20          6    90000005       -0.986823   -0.260738    0.955822
     21          1    90000006       -1.502299    0.236962    1.759551
     22          7    90000004        0.126621    0.231010    0.327390
     23          6    90000005        0.491175   -0.541638   -0.793554
     24          1    90000007        1.282673   -0.257053   -1.465969
     25          6    90000008       -0.368770   -1.635035   -0.810224
     26          1    90000007       -0.479887   -2.410099   -1.559643
     27          6    90000001        0.943472    1.335384    0.803323
     28          1    90000002        0.264220    2.191172    0.905517
     29          1    90000002        1.230490    1.106197    1.839515
     30          6    90000001        2.145191    1.790716   -0.058736
     31          1    90000002        1.849206    2.019389   -1.090531
     32          1    90000002        2.495653    2.704668    0.421752
     33          8    90000003        3.192961    0.869495    0.105365
     34          6    90000001        4.407634    1.330772   -0.411155
     35          1    90000002        4.637977    2.357512   -0.094223
     36          1    90000002        4.367034    1.251780   -1.503955
     37          6    90000001        5.538511    0.499914    0.228684
     38          1    90000002        6.481889    0.976100   -0.066078
     39          1    90000002        5.352371    0.521581    1.307240
     40          8    90000003        5.398783   -0.754772   -0.339505
     41          6    90000001        6.386178   -1.743599    0.102955
     42          1    90000002        5.888766   -2.696730   -0.113201
     43          1    90000002        6.468534   -1.637229    1.193140
     44          1    90000002        7.357427   -1.579555   -0.376173
 ---------------------------------------------------------------------
 Rotational constants (GHZ):           0.6966539           0.1348636           0.1179081
 Standard basis: 6-31G(d) (6D, 7F)
 There are   335 symmetry adapted cartesian basis functions of A   symmetry.
 There are   335 symmetry adapted basis functions of A   symmetry.
   335 basis functions,   632 primitive gaussians,   335 cartesian basis functions
    74 alpha electrons       74 beta electrons
       nuclear repulsion energy      1507.4916703027 Hartrees.
 NAtoms=   44 NActive=   44 NUniq=   44 SFac= 1.00D+00 NAtFMM=   60 NAOKFM=F Big=F
 Integral buffers will be    131072 words long.
 Raffenetti 1 integral format.
 Two-electron integral symmetry is turned on.
 One-electron integrals computed using PRISM.
 NBasis=   335 RedAO= T EigKep=  1.42D-03  NBF=   335
 NBsUse=   335 1.00D-06 EigRej= -1.00D+00 NBFU=   335
 ExpMin= 1.61D-01 ExpMax= 5.48D+03 ExpMxC= 8.25D+02 IAcc=3 IRadAn=         5 AccDes= 0.00D+00
 Harris functional with IExCor=  205 and IRadAn=       5 diagonalized for initial guess.
 HarFok:  IExCor=  205 AccDes= 0.00D+00 IRadAn=         5 IDoV= 1 UseB2=F ITyADJ=14
 ICtDFT=  3500011 ScaDFX=  1.000000  1.000000  1.000000  1.000000
 FoFCou: FMM=F IPFlag=           0 FMFlag=      100000 FMFlg1=           0
         NFxFlg=           0 DoJE=T BraDBF=F KetDBF=T FulRan=T
         wScrn=  0.000000 ICntrl=       500 IOpCl=  0 I1Cent=   200000004 NGrid=           0
         NMat0=    1 NMatS0=      1 NMatT0=    0 NMatD0=    1 NMtDS0=    0 NMtDT0=    0
 Petite list used in FoFCou.
 Requested convergence on RMS density matrix=1.00D-08 within 128 cycles.
 Requested convergence on MAX density matrix=1.00D-06.
 Requested convergence on             energy=1.00D-06.
 No special actions if energy rises.
 Integral accuracy reduced to 1.0D-05 until final iterations.
 Initial convergence to 1.0D-05 achieved.  Increase integral accuracy.
 SCF Done:  E(RHF) =  -914.853420405     A.U. after   14 cycles
            NFock= 14  Conv=0.73D-08     -V/T= 2.0028
 SCF density gives NOpUse=  1 NOpAll=  1.

 **********************************************************************

            Population analysis using the SCF density.

 **********************************************************************

 Orbital symmetries:
 BldTbl:  Degeneracy threshold= 1.00D-02
       Occupied  (A) (A) (A) (A) (A) (A) (A) (A) (A) (A) (A) (A)
                 (A) (A) (A) (A) (A) (A) (A) (A) (A) (A) (A) (A)
                 (A) (A) (A) (A) (A) (A) (A) (A) (A) (A) (A) (A)
                 (A) (A) (A) (A) (A) (A) (A) (A) (A) (A) (A) (A)
                 (A) (A) (A) (A) (A) (A) (A) (A) (A) (A) (A) (A)
                 (A) (A) (A) (A) (A) (A) (A) (A) (A) (A) (A) (A)
                 (A) (A)
       Virtual   (A) (A) (A) (A) (A) (A) (A) (A) (A) (A) (A) (A)
                 (A) (A) (A) (A) (A) (A) (A) (A) (A) (A) (A) (A)
                 (A) (A) (A) (A) (A) (A) (A) (A) (A) (A) (A) (A)
                 (A) (A) (A) (A) (A) (A) (A) (A) (A) (A) (A) (A)
                 (A) (A) (A) (A) (A) (A) (A) (A) (A) (A) (A) (A)
                 (A) (A) (A) (A) (A) (A) (A) (A) (A) (A) (A) (A)
                 (A) (A) (A) (A) (A) (A) (A) (A) (A) (A) (A) (A)
                 (A) (A) (A) (A) (A) (A) (A) (A) (A) (A) (A) (A)
                 (A) (A) (A) (A) (A) (A) (A) (A) (A) (A) (A) (A)
                 (A) (A) (A) (A) (A) (A) (A) (A) (A) (A) (A) (A)
                 (A) (A) (A) (A) (A) (A) (A) (A) (A) (A) (A) (A)
                 (A) (A) (A) (A) (A) (A) (A) (A) (A) (A) (A) (A)
                 (A) (A) (A) (A) (A) (A) (A) (A) (A) (A) (A) (A)
                 (A) (A) (A) (A) (A) (A) (A) (A) (A) (A) (A) (A)
                 (A) (A) (A) (A) (A) (A) (A) (A) (A) (A) (A) (A)
                 (A) (A) (A) (A) (A) (A) (A) (A) (A) (A) (A) (A)
                 (A) (A) (A) (A) (A) (A) (A) (A) (A) (A) (A) (A)
                 (A) (A) (A) (A) (A) (A) (A) (A) (A) (A) (A) (A)
                 (A) (A) (A) (A) (A) (A) (A) (A) (A) (A) (A) (A)
                 (A) (A) (A) (A) (A) (A) (A) (A) (A) (A) (A) (A)
                 (A) (A) (A) (A) (A) (A) (A) (A) (A) (A) (A) (A)
                 (A) (A) (A) (A) (A) (A) (A) (A) (A)
 The electronic state is 1-A.
 Alpha  occ. eigenvalues --  -20.67383 -20.67157 -20.65515 -20.63260 -15.81226
 Alpha  occ. eigenvalues --  -15.80957 -11.50901 -11.43674 -11.43324 -11.41845
 Alpha  occ. eigenvalues --  -11.41454 -11.41112 -11.41038 -11.38578 -11.37975
 Alpha  occ. eigenvalues --  -11.37473 -11.36723 -11.35609 -11.34850  -1.52888
 Alpha  occ. eigenvalues --   -1.49885  -1.48024  -1.43964  -1.43466  -1.39515
 Alpha  occ. eigenvalues --   -1.21347  -1.18131  -1.15370  -1.11744  -1.09398
 Alpha  occ. eigenvalues --   -1.03026  -1.02450  -1.00008  -0.98682  -0.96516
 Alpha  occ. eigenvalues --   -0.94398  -0.92008  -0.91284  -0.88502  -0.82039
 Alpha  occ. eigenvalues --   -0.80856  -0.80523  -0.79829  -0.78649  -0.78367
 Alpha  occ. eigenvalues --   -0.76984  -0.76494  -0.75121  -0.74586  -0.74070
 Alpha  occ. eigenvalues --   -0.73042  -0.72108  -0.71524  -0.71201  -0.70799
 Alpha  occ. eigenvalues --   -0.69006  -0.67528  -0.66621  -0.65413  -0.65127
 Alpha  occ. eigenvalues --   -0.64378  -0.63158  -0.61960  -0.60962  -0.58672
 Alpha  occ. eigenvalues --   -0.57277  -0.56648  -0.55880  -0.54186  -0.53294
 Alpha  occ. eigenvalues --   -0.52985  -0.51614  -0.49905  -0.48342
 Alpha virt. eigenvalues --   -0.02400   0.03561   0.08686   0.09293   0.11259
 Alpha virt. eigenvalues --    0.11705   0.12415   0.14463   0.15466   0.16118
 Alpha virt. eigenvalues --    0.16696   0.17277   0.17351   0.18093   0.18447
 Alpha virt. eigenvalues --    0.19528   0.19812   0.20323   0.20645   0.20886
 Alpha virt. eigenvalues --    0.21189   0.22354   0.22467   0.22739   0.22968
 Alpha virt. eigenvalues --    0.23614   0.24363   0.24544   0.24850   0.25680
 Alpha virt. eigenvalues --    0.26091   0.26517   0.27349   0.27622   0.28861
 Alpha virt. eigenvalues --    0.29957   0.30852   0.31854   0.32503   0.33090
 Alpha virt. eigenvalues --    0.34666   0.35768   0.36321   0.36561   0.38740
 Alpha virt. eigenvalues --    0.50694   0.52569   0.55909   0.57458   0.58494
 Alpha virt. eigenvalues --    0.59737   0.60761   0.62038   0.62894   0.63720
 Alpha virt. eigenvalues --    0.64681   0.65348   0.65904   0.66252   0.67132
 Alpha virt. eigenvalues --    0.67320   0.67906   0.68241   0.70144   0.70412
 Alpha virt. eigenvalues --    0.71278   0.72226   0.73226   0.74884   0.76155
 Alpha virt. eigenvalues --    0.77369   0.80107   0.80384   0.80931   0.81487
 Alpha virt. eigenvalues --    0.82347   0.83666   0.85878   0.86784   0.88018
 Alpha virt. eigenvalues --    0.89509   0.90838   0.91450   0.92295   0.93532
 Alpha virt. eigenvalues --    0.93926   0.95637   0.96576   0.97149   0.98627
 Alpha virt. eigenvalues --    0.98903   0.99771   1.00695   1.01713   1.02375
 Alpha virt. eigenvalues --    1.02627   1.03536   1.03611   1.04561   1.05348
 Alpha virt. eigenvalues --    1.05521   1.06143   1.06765   1.07424   1.07517
 Alpha virt. eigenvalues --    1.07726   1.08212   1.09026   1.09577   1.09605
 Alpha virt. eigenvalues --    1.10464   1.11375   1.12175   1.12761   1.13862
 Alpha virt. eigenvalues --    1.14341   1.14989   1.16642   1.21640   1.22492
 Alpha virt. eigenvalues --    1.24481   1.26675   1.28360   1.28913   1.29403
 Alpha virt. eigenvalues --    1.30276   1.31422   1.32679   1.35111   1.36173
 Alpha virt. eigenvalues --    1.38368   1.41486   1.43836   1.45371   1.45783
 Alpha virt. eigenvalues --    1.46532   1.47031   1.49369   1.52647   1.53190
 Alpha virt. eigenvalues --    1.54444   1.55879   1.59525   1.61140   1.61987
 Alpha virt. eigenvalues --    1.64047   1.64808   1.66695   1.68984   1.70585
 Alpha virt. eigenvalues --    1.71758   1.72816   1.74333   1.77700   1.81792
 Alpha virt. eigenvalues --    1.82394   1.83430   1.85072   1.89818   1.90291
 Alpha virt. eigenvalues --    1.96034   1.97543   1.98219   2.00292   2.02532
 Alpha virt. eigenvalues --    2.02934   2.04620   2.06348   2.07824   2.09185
 Alpha virt. eigenvalues --    2.10512   2.11174   2.11952   2.12734   2.14026
 Alpha virt. eigenvalues --    2.16534   2.17352   2.18010   2.19869   2.21475
 Alpha virt. eigenvalues --    2.22293   2.24175   2.24540   2.26992   2.28073
 Alpha virt. eigenvalues --    2.29553   2.30349   2.30628   2.31597   2.32562
 Alpha virt. eigenvalues --    2.33816   2.35247   2.36280   2.37247   2.37797
 Alpha virt. eigenvalues --    2.38844   2.39214   2.40854   2.42797   2.43681
 Alpha virt. eigenvalues --    2.44994   2.45832   2.46514   2.48755   2.49867
 Alpha virt. eigenvalues --    2.50244   2.52589   2.53019   2.54492   2.55478
 Alpha virt. eigenvalues --    2.56909   2.59203   2.63295   2.66005   2.67259
 Alpha virt. eigenvalues --    2.69092   2.69704   2.70159   2.72191   2.73020
 Alpha virt. eigenvalues --    2.76824   2.77263   2.79100   2.81539   2.86296
 Alpha virt. eigenvalues --    2.86691   2.90446   2.91949   2.93299   2.97963
 Alpha virt. eigenvalues --    3.04437   3.06233   3.09423   3.12743   3.13948
 Alpha virt. eigenvalues --    3.14339   3.18128   3.20082   3.22442   3.28103
 Alpha virt. eigenvalues --    3.31178   3.34459   4.17977   4.21009   4.23843
 Alpha virt. eigenvalues --    4.25906   4.28303   4.32007   4.36485   4.49579
 Alpha virt. eigenvalues --    4.54349   4.55407   4.56768   4.59790   4.59896
 Alpha virt. eigenvalues --    4.64048   4.66654   4.75475   4.78890   4.80981
 Alpha virt. eigenvalues --    4.84633
          Condensed to atoms (all electrons):
               1          2          3          4          5          6
     1  C    4.829371   0.382145   0.399846   0.392131   0.182175  -0.031042
     2  H    0.382145   0.539346  -0.022942  -0.047134  -0.030070  -0.001193
     3  H    0.399846  -0.022942   0.504422  -0.017579  -0.041051   0.003809
     4  H    0.392131  -0.047134  -0.017579   0.542914  -0.038917  -0.005825
     5  O    0.182175  -0.030070  -0.041051  -0.038917   8.535153   0.198916
     6  C   -0.031042  -0.001193   0.003809  -0.005825   0.198916   4.795847
     7  H   -0.001111  -0.000410   0.000024   0.003163  -0.036429   0.393872
     8  H   -0.003324   0.003051  -0.000099  -0.000392  -0.030915   0.385953
     9  C    0.004301  -0.000050  -0.000179  -0.000280  -0.058188   0.372702
    10  H   -0.000163   0.000022  -0.000015   0.000002  -0.001345  -0.039528
    11  H   -0.000086   0.000002   0.000002   0.000011   0.002765  -0.036157
    12  O   -0.000121   0.000027   0.000002   0.000005   0.004362  -0.050556
    13  C    0.000004  -0.000001  -0.000000  -0.000000  -0.000092   0.004055
    14  H    0.000000  -0.000000   0.000000   0.000000   0.000007  -0.000057
    15  H   -0.000000   0.000000  -0.000000  -0.000000   0.000002  -0.000262
    16  C   -0.000000  -0.000000  -0.000000   0.000000   0.000015   0.000235
    17  H    0.000000  -0.000000   0.000000  -0.000000  -0.000000  -0.000003
    18  H    0.000001  -0.000000   0.000000  -0.000000  -0.000038   0.000130
    19  N    0.000014   0.000000   0.000002  -0.000000  -0.000540  -0.000042
    20  C   -0.000066  -0.000005   0.000014   0.000006   0.002097  -0.000164
    21  H   -0.000100   0.000007  -0.000046   0.000004   0.002835  -0.000169
    22  N    0.000056  -0.000001   0.000031  -0.000001  -0.000442   0.000021
    23  C    0.000000   0.000000  -0.000002   0.000000   0.000018   0.000001
    24  H   -0.000000  -0.000000  -0.000000   0.000000   0.000000  -0.000000
    25  C   -0.000003   0.000000  -0.000001   0.000000   0.000031  -0.000005
    26  H   -0.000000  -0.000000  -0.000000   0.000000   0.000000  -0.000000
    27  C   -0.000034   0.000000   0.000013   0.000000  -0.000008   0.000000
    28  H    0.000028  -0.000001   0.000311  -0.000000   0.000036  -0.000001
    29  H    0.000000  -0.000000   0.000000   0.000000   0.000000   0.000000
    30  C   -0.000000  -0.000000  -0.000002   0.000000   0.000000  -0.000000
    31  H    0.000000   0.000000   0.000002   0.000000   0.000000   0.000000
    32  H    0.000000   0.000000  -0.000000  -0.000000  -0.000000   0.000000
    33  O   -0.000000   0.000000   0.000000   0.000000   0.000000  -0.000000
    34  C    0.000000  -0.000000  -0.000000   0.000000   0.000000  -0.000000
    35  H    0.000000   0.000000  -0.000000   0.000000   0.000000   0.000000
    36  H   -0.000000  -0.000000   0.000000   0.000000  -0.000000   0.000000
    37  C   -0.000000  -0.000000   0.000000   0.000000   0.000000  -0.000000
    38  H    0.000000  -0.000000  -0.000000  -0.000000   0.000000  -0.000000
    39  H   -0.000000  -0.000000   0.000000   0.000000  -0.000000   0.000000
    40  O    0.000000  -0.000000  -0.000000  -0.000000  -0.000000   0.000000
    41  C   -0.000000  -0.000000   0.000000  -0.000000  -0.000000   0.000000
    42  H    0.000000  -0.000000  -0.000000  -0.000000   0.000000  -0.000000
    43  H    0.000000  -0.000000  -0.000000   0.000000   0.000000  -0.000000
    44  H   -0.000000   0.000000  -0.000000   0.000000   0.000000  -0.000000
               7          8          9         10         11         12
     1  C   -0.001111  -0.003324   0.004301  -0.000163  -0.000086  -0.000121
     2  H   -0.000410   0.003051  -0.000050   0.000022   0.000002   0.000027
     3  H    0.000024  -0.000099  -0.000179  -0.000015   0.000002   0.000002
     4  H    0.003163  -0.000392  -0.000280   0.000002   0.000011   0.000005
     5  O   -0.036429  -0.030915  -0.058188  -0.001345   0.002765   0.004362
     6  C    0.393872   0.385953   0.372702  -0.039528  -0.036157  -0.050556
     7  H    0.552693  -0.025624  -0.057295  -0.002349   0.002224   0.003131
     8  H   -0.025624   0.512273  -0.036790   0.005507  -0.001239   0.000416
     9  C   -0.057295  -0.036790   4.857679   0.376797   0.395145   0.192411
    10  H   -0.002349   0.005507   0.376797   0.633487  -0.049133  -0.041524
    11  H    0.002224  -0.001239   0.395145  -0.049133   0.544299  -0.034117
    12  O    0.003131   0.000416   0.192411  -0.041524  -0.034117   8.476814
    13  C   -0.000134  -0.000173  -0.036161  -0.005243  -0.002200   0.216541
    14  H    0.000002  -0.000014   0.003973  -0.000238  -0.000135  -0.039652
    15  H    0.000005  -0.000001  -0.002587  -0.000538   0.003848  -0.027914
    16  C    0.000016   0.000015  -0.010935   0.000230  -0.000582  -0.067232
    17  H   -0.000000  -0.000000   0.000371  -0.000144   0.000035   0.003617
    18  H    0.000013  -0.000007  -0.000782  -0.001730  -0.000094  -0.004281
    19  N   -0.000003  -0.000003   0.000027   0.000191   0.000063   0.003233
    20  C    0.000010  -0.000001  -0.000223  -0.000691   0.000033   0.002474
    21  H    0.000005   0.000011  -0.000106   0.000778   0.000009   0.000094
    22  N   -0.000000  -0.000000  -0.000007   0.000023  -0.000000  -0.000085
    23  C    0.000000   0.000000   0.000004  -0.000001  -0.000000  -0.000071
    24  H    0.000000  -0.000000   0.000000  -0.000000  -0.000000  -0.000000
    25  C    0.000000   0.000000  -0.000047  -0.000034   0.000002   0.000427
    26  H    0.000000   0.000000  -0.000001  -0.000000   0.000000   0.000034
    27  C    0.000000  -0.000000   0.000000  -0.000001   0.000000  -0.000000
    28  H    0.000000   0.000000   0.000000   0.000000   0.000000  -0.000000
    29  H    0.000000   0.000000  -0.000000   0.000000   0.000000  -0.000000
    30  C    0.000000  -0.000000  -0.000000  -0.000000   0.000000   0.000000
    31  H    0.000000   0.000000  -0.000000  -0.000000   0.000000   0.000000
    32  H   -0.000000  -0.000000  -0.000000  -0.000000  -0.000000  -0.000000
    33  O    0.000000   0.000000   0.000000  -0.000000  -0.000000   0.000000
    34  C    0.000000  -0.000000  -0.000000  -0.000000   0.000000   0.000000
    35  H    0.000000   0.000000  -0.000000  -0.000000  -0.000000   0.000000
    36  H   -0.000000  -0.000000   0.000000  -0.000000  -0.000000  -0.000000
    37  C    0.000000   0.000000  -0.000000  -0.000000   0.000000   0.000000
    38  H   -0.000000   0.000000  -0.000000   0.000000   0.000000   0.000000
    39  H   -0.000000  -0.000000  -0.000000  -0.000000  -0.000000  -0.000000
    40  O   -0.000000  -0.000000  -0.000000   0.000000  -0.000000  -0.000000
    41  C   -0.000000  -0.000000   0.000000   0.000000  -0.000000  -0.000000
    42  H    0.000000  -0.000000  -0.000000   0.000000   0.000000   0.000000
    43  H    0.000000   0.000000  -0.000000  -0.000000   0.000000   0.000000
    44  H    0.000000   0.000000  -0.000000   0.000000   0.000000   0.000000
              13         14         15         16         17         18
     1  C    0.000004   0.000000  -0.000000  -0.000000   0.000000   0.000001
     2  H   -0.000001  -0.000000   0.000000  -0.000000  -0.000000  -0.000000
     3  H   -0.000000   0.000000  -0.000000  -0.000000   0.000000   0.000000
     4  H   -0.000000   0.000000  -0.000000   0.000000  -0.000000  -0.000000
     5  O   -0.000092   0.000007   0.000002   0.000015  -0.000000  -0.000038
     6  C    0.004055  -0.000057  -0.000262   0.000235  -0.000003   0.000130
     7  H   -0.000134   0.000002   0.000005   0.000016  -0.000000   0.000013
     8  H   -0.000173  -0.000014  -0.000001   0.000015  -0.000000  -0.000007
     9  C   -0.036161   0.003973  -0.002587  -0.010935   0.000371  -0.000782
    10  H   -0.005243  -0.000238  -0.000538   0.000230  -0.000144  -0.001730
    11  H   -0.002200  -0.000135   0.003848  -0.000582   0.000035  -0.000094
    12  O    0.216541  -0.039652  -0.027914  -0.067232   0.003617  -0.004281
    13  C    4.797777   0.413681   0.394257   0.313207  -0.041921  -0.024143
    14  H    0.413681   0.500487  -0.022988  -0.048299  -0.000947   0.003304
    15  H    0.394257  -0.022988   0.509157  -0.053249   0.002131  -0.002222
    16  C    0.313207  -0.048299  -0.053249   5.165132   0.398430   0.404040
    17  H   -0.041921  -0.000947   0.002131   0.398430   0.495062  -0.036618
    18  H   -0.024143   0.003304  -0.002222   0.404040  -0.036618   0.472268
    19  N   -0.051855  -0.004152   0.003824   0.162184  -0.042104  -0.035658
    20  C   -0.000894   0.000059   0.000013  -0.033800   0.001226  -0.002724
    21  H    0.000021  -0.000001   0.000004  -0.000366  -0.000036   0.000198
    22  N   -0.000106  -0.000012   0.000000   0.003118  -0.000101   0.000200
    23  C    0.000320   0.000140  -0.000004   0.002541  -0.000005  -0.000039
    24  H    0.000001   0.000003  -0.000000  -0.000050  -0.000001   0.000002
    25  C   -0.000569   0.002016  -0.000004  -0.026930  -0.002002   0.001864
    26  H   -0.000187   0.000049   0.000005   0.000246   0.000437  -0.000043
    27  C    0.000001  -0.000000  -0.000000  -0.000032   0.000002  -0.000005
    28  H   -0.000000   0.000000   0.000000  -0.000002   0.000000   0.000000
    29  H    0.000000  -0.000000  -0.000000  -0.000000  -0.000001  -0.000000
    30  C   -0.000000   0.000000   0.000000   0.000001  -0.000000   0.000000
    31  H    0.000000  -0.000000  -0.000000  -0.000000  -0.000000  -0.000000
    32  H    0.000000   0.000000  -0.000000  -0.000000   0.000000   0.000000
    33  O    0.000000  -0.000000  -0.000000   0.000000   0.000000  -0.000000
    34  C   -0.000000   0.000000   0.000000   0.000000   0.000000   0.000000
    35  H    0.000000  -0.000000  -0.000000   0.000000  -0.000000  -0.000000
    36  H   -0.000000  -0.000000   0.000000  -0.000000   0.000000  -0.000000
    37  C    0.000000  -0.000000  -0.000000   0.000000  -0.000000  -0.000000
    38  H   -0.000000  -0.000000   0.000000  -0.000000   0.000000  -0.000000
    39  H    0.000000  -0.000000  -0.000000  -0.000000   0.000000  -0.000000
    40  O    0.000000   0.000000   0.000000  -0.000000   0.000000  -0.000000
    41  C   -0.000000   0.000000  -0.000000   0.000000   0.000000   0.000000
    42  H   -0.000000  -0.000000   0.000000   0.000000  -0.000000   0.000000
    43  H    0.000000   0.000000   0.000000   0.000000   0.000000   0.000000
    44  H   -0.000000  -0.000000   0.000000  -0.000000   0.000000  -0.000000
              19         20         21         22         23         24
     1  C    0.000014  -0.000066  -0.000100   0.000056   0.000000  -0.000000
     2  H    0.000000  -0.000005   0.000007  -0.000001   0.000000  -0.000000
     3  H    0.000002   0.000014  -0.000046   0.000031  -0.000002  -0.000000
     4  H   -0.000000   0.000006   0.000004  -0.000001   0.000000   0.000000
     5  O   -0.000540   0.002097   0.002835  -0.000442   0.000018   0.000000
     6  C   -0.000042  -0.000164  -0.000169   0.000021   0.000001  -0.000000
     7  H   -0.000003   0.000010   0.000005  -0.000000   0.000000   0.000000
     8  H   -0.000003  -0.000001   0.000011  -0.000000   0.000000  -0.000000
     9  C    0.000027  -0.000223  -0.000106  -0.000007   0.000004   0.000000
    10  H    0.000191  -0.000691   0.000778   0.000023  -0.000001  -0.000000
    11  H    0.000063   0.000033   0.000009  -0.000000  -0.000000  -0.000000
    12  O    0.003233   0.002474   0.000094  -0.000085  -0.000071  -0.000000
    13  C   -0.051855  -0.000894   0.000021  -0.000106   0.000320   0.000001
    14  H   -0.004152   0.000059  -0.000001  -0.000012   0.000140   0.000003
    15  H    0.003824   0.000013   0.000004   0.000000  -0.000004  -0.000000
    16  C    0.162184  -0.033800  -0.000366   0.003118   0.002541  -0.000050
    17  H   -0.042104   0.001226  -0.000036  -0.000101  -0.000005  -0.000001
    18  H   -0.035658  -0.002724   0.000198   0.000200  -0.000039   0.000002
    19  N    7.000826   0.433498  -0.020687  -0.101122  -0.061945   0.001991
    20  C    0.433498   4.563116   0.372342   0.428654  -0.086664   0.002523
    21  H   -0.020687   0.372342   0.337858  -0.026687   0.001443  -0.000014
    22  N   -0.101122   0.428654  -0.026687   7.039195   0.340100  -0.025880
    23  C   -0.061945  -0.086664   0.001443   0.340100   4.766293   0.372723
    24  H    0.001991   0.002523  -0.000014  -0.025880   0.372723   0.357610
    25  C    0.332763  -0.078561   0.001173  -0.055807   0.666838  -0.015500
    26  H   -0.028370   0.002426  -0.000009   0.001982  -0.015437   0.000565
    27  C    0.002354  -0.032524   0.001186   0.135960  -0.028048  -0.002993
    28  H    0.000066  -0.003099   0.000526  -0.048725   0.001995   0.000047
    29  H    0.000116  -0.003416   0.000272  -0.045154   0.000291  -0.000073
    30  C   -0.000108   0.001903  -0.000050  -0.025675  -0.006585  -0.001910
    31  H   -0.000006  -0.000123   0.000002  -0.002784   0.000098  -0.002478
    32  H    0.000001  -0.000044   0.000002   0.003132   0.000333   0.000315
    33  O    0.000002  -0.000047   0.000001   0.000703   0.000207   0.004846
    34  C   -0.000000   0.000002  -0.000000  -0.000068  -0.000009  -0.000073
    35  H    0.000000  -0.000000   0.000000  -0.000003   0.000002   0.000030
    36  H    0.000000  -0.000000  -0.000000  -0.000001   0.000016  -0.000113
    37  C    0.000000   0.000000   0.000000   0.000004  -0.000004  -0.000014
    38  H   -0.000000  -0.000000  -0.000000  -0.000000  -0.000000   0.000000
    39  H    0.000000  -0.000000   0.000000  -0.000000  -0.000000   0.000001
    40  O   -0.000000   0.000000  -0.000000  -0.000000  -0.000007   0.000031
    41  C   -0.000000  -0.000000   0.000000   0.000000   0.000000  -0.000001
    42  H    0.000000  -0.000000  -0.000000  -0.000000   0.000000  -0.000000
    43  H   -0.000000   0.000000  -0.000000  -0.000000  -0.000000   0.000000
    44  H   -0.000000   0.000000  -0.000000   0.000000  -0.000000   0.000000
              25         26         27         28         29         30
     1  C   -0.000003  -0.000000  -0.000034   0.000028   0.000000  -0.000000
     2  H    0.000000  -0.000000   0.000000  -0.000001  -0.000000  -0.000000
     3  H   -0.000001  -0.000000   0.000013   0.000311   0.000000  -0.000002
     4  H    0.000000   0.000000   0.000000  -0.000000   0.000000   0.000000
     5  O    0.000031   0.000000  -0.000008   0.000036   0.000000   0.000000
     6  C   -0.000005  -0.000000   0.000000  -0.000001   0.000000  -0.000000
     7  H    0.000000   0.000000   0.000000   0.000000   0.000000   0.000000
     8  H    0.000000   0.000000  -0.000000   0.000000   0.000000  -0.000000
     9  C   -0.000047  -0.000001   0.000000   0.000000  -0.000000  -0.000000
    10  H   -0.000034  -0.000000  -0.000001   0.000000   0.000000  -0.000000
    11  H    0.000002   0.000000   0.000000   0.000000   0.000000   0.000000
    12  O    0.000427   0.000034  -0.000000  -0.000000  -0.000000   0.000000
    13  C   -0.000569  -0.000187   0.000001  -0.000000   0.000000  -0.000000
    14  H    0.002016   0.000049  -0.000000   0.000000  -0.000000   0.000000
    15  H   -0.000004   0.000005  -0.000000   0.000000  -0.000000   0.000000
    16  C   -0.026930   0.000246  -0.000032  -0.000002  -0.000000   0.000001
    17  H   -0.002002   0.000437   0.000002   0.000000  -0.000001  -0.000000
    18  H    0.001864  -0.000043  -0.000005   0.000000  -0.000000   0.000000
    19  N    0.332763  -0.028370   0.002354   0.000066   0.000116  -0.000108
    20  C   -0.078561   0.002426  -0.032524  -0.003099  -0.003416   0.001903
    21  H    0.001173  -0.000009   0.001186   0.000526   0.000272  -0.000050
    22  N   -0.055807   0.001982   0.135960  -0.048725  -0.045154  -0.025675
    23  C    0.666838  -0.015437  -0.028048   0.001995   0.000291  -0.006585
    24  H   -0.015500   0.000565  -0.002993   0.000047  -0.000073  -0.001910
    25  C    4.757372   0.373727   0.002619  -0.000164  -0.000025  -0.000009
    26  H    0.373727   0.367343  -0.000046   0.000001   0.000002   0.000001
    27  C    0.002619  -0.000046   5.028444   0.401672   0.399021   0.359617
    28  H   -0.000164   0.000001   0.401672   0.502016  -0.033045  -0.034131
    29  H   -0.000025   0.000002   0.399021  -0.033045   0.464855  -0.020825
    30  C   -0.000009   0.000001   0.359617  -0.034131  -0.020825   4.814293
    31  H   -0.000078   0.000001  -0.042030   0.000324   0.003310   0.383844
    32  H    0.000000  -0.000000  -0.036446  -0.001635  -0.002679   0.407781
    33  O   -0.000082  -0.000002  -0.057589   0.002600   0.001276   0.204062
    34  C    0.000001   0.000000   0.005447  -0.000120  -0.000061  -0.049564
    35  H    0.000000  -0.000000   0.000160   0.000002  -0.000007  -0.008449
    36  H   -0.000001   0.000000  -0.000232   0.000008   0.000017  -0.004358
    37  C   -0.000000   0.000000  -0.000182   0.000002  -0.000027   0.005571
    38  H   -0.000000  -0.000000   0.000001  -0.000000   0.000000  -0.000097
    39  H   -0.000000  -0.000000  -0.000014   0.000000   0.000026  -0.000454
    40  O   -0.000000  -0.000000   0.000004  -0.000000   0.000000  -0.000086
    41  C    0.000000   0.000000  -0.000000   0.000000  -0.000000   0.000007
    42  H    0.000000  -0.000000   0.000000  -0.000000   0.000000  -0.000001
    43  H   -0.000000  -0.000000   0.000000  -0.000000   0.000000  -0.000000
    44  H   -0.000000  -0.000000  -0.000000  -0.000000   0.000000   0.000000
              31         32         33         34         35         36
     1  C    0.000000   0.000000  -0.000000   0.000000   0.000000  -0.000000
     2  H    0.000000   0.000000   0.000000  -0.000000   0.000000  -0.000000
     3  H    0.000002  -0.000000   0.000000  -0.000000  -0.000000   0.000000
     4  H    0.000000  -0.000000   0.000000   0.000000   0.000000   0.000000
     5  O    0.000000  -0.000000   0.000000   0.000000   0.000000  -0.000000
     6  C    0.000000   0.000000  -0.000000  -0.000000   0.000000   0.000000
     7  H    0.000000  -0.000000   0.000000   0.000000   0.000000  -0.000000
     8  H    0.000000  -0.000000   0.000000  -0.000000   0.000000  -0.000000
     9  C   -0.000000  -0.000000   0.000000  -0.000000  -0.000000   0.000000
    10  H   -0.000000  -0.000000  -0.000000  -0.000000  -0.000000  -0.000000
    11  H    0.000000  -0.000000  -0.000000   0.000000  -0.000000  -0.000000
    12  O    0.000000  -0.000000   0.000000   0.000000   0.000000  -0.000000
    13  C    0.000000   0.000000   0.000000  -0.000000   0.000000  -0.000000
    14  H   -0.000000   0.000000  -0.000000   0.000000  -0.000000  -0.000000
    15  H   -0.000000  -0.000000  -0.000000   0.000000  -0.000000   0.000000
    16  C   -0.000000  -0.000000   0.000000   0.000000   0.000000  -0.000000
    17  H   -0.000000   0.000000   0.000000   0.000000  -0.000000   0.000000
    18  H   -0.000000   0.000000  -0.000000   0.000000  -0.000000  -0.000000
    19  N   -0.000006   0.000001   0.000002  -0.000000   0.000000   0.000000
    20  C   -0.000123  -0.000044  -0.000047   0.000002  -0.000000  -0.000000
    21  H    0.000002   0.000002   0.000001  -0.000000   0.000000  -0.000000
    22  N   -0.002784   0.003132   0.000703  -0.000068  -0.000003  -0.000001
    23  C    0.000098   0.000333   0.000207  -0.000009   0.000002   0.000016
    24  H   -0.002478   0.000315   0.004846  -0.000073   0.000030  -0.000113
    25  C   -0.000078   0.000000  -0.000082   0.000001   0.000000  -0.000001
    26  H    0.000001  -0.000000  -0.000002   0.000000  -0.000000   0.000000
    27  C   -0.042030  -0.036446  -0.057589   0.005447   0.000160  -0.000232
    28  H    0.000324  -0.001635   0.002600  -0.000120   0.000002   0.000008
    29  H    0.003310  -0.002679   0.001276  -0.000061  -0.000007   0.000017
    30  C    0.383844   0.407781   0.204062  -0.049564  -0.008449  -0.004358
    31  H    0.551137  -0.036645  -0.035778  -0.000974  -0.001122   0.004944
    32  H   -0.036645   0.514070  -0.043542  -0.006369   0.007323  -0.000809
    33  O   -0.035778  -0.043542   8.484803   0.180142  -0.035976  -0.043492
    34  C   -0.000974  -0.006369   0.180142   4.882183   0.386981   0.394831
    35  H   -0.001122   0.007323  -0.035976   0.386981   0.583341  -0.034128
    36  H    0.004944  -0.000809  -0.043492   0.394831  -0.034128   0.531330
    37  C   -0.000236  -0.000007  -0.053007   0.380036  -0.050608  -0.027112
    38  H    0.000011  -0.000019   0.002942  -0.048333   0.000758  -0.000473
    39  H    0.000032  -0.000013   0.001016  -0.041977   0.000058   0.004452
    40  O    0.000002  -0.000003   0.004647  -0.070878   0.003826   0.000715
    41  C   -0.000000   0.000000  -0.000150   0.006567  -0.000175  -0.000173
    42  H    0.000000   0.000000   0.000011  -0.000212   0.000003   0.000006
    43  H   -0.000000   0.000000  -0.000016  -0.000063   0.000017   0.000019
    44  H    0.000000  -0.000000   0.000003  -0.000300   0.000005  -0.000015
              37         38         39         40         41         42
     1  C   -0.000000   0.000000  -0.000000   0.000000  -0.000000   0.000000
     2  H   -0.000000  -0.000000  -0.000000  -0.000000  -0.000000  -0.000000
     3  H    0.000000  -0.000000   0.000000  -0.000000   0.000000  -0.000000
     4  H    0.000000  -0.000000   0.000000  -0.000000  -0.000000  -0.000000
     5  O    0.000000   0.000000  -0.000000  -0.000000  -0.000000   0.000000
     6  C   -0.000000  -0.000000   0.000000   0.000000   0.000000  -0.000000
     7  H    0.000000  -0.000000  -0.000000  -0.000000  -0.000000   0.000000
     8  H    0.000000   0.000000  -0.000000  -0.000000  -0.000000  -0.000000
     9  C   -0.000000  -0.000000  -0.000000  -0.000000   0.000000  -0.000000
    10  H   -0.000000   0.000000  -0.000000   0.000000   0.000000   0.000000
    11  H    0.000000   0.000000  -0.000000  -0.000000  -0.000000   0.000000
    12  O    0.000000   0.000000  -0.000000  -0.000000  -0.000000   0.000000
    13  C    0.000000  -0.000000   0.000000   0.000000  -0.000000  -0.000000
    14  H   -0.000000  -0.000000  -0.000000   0.000000   0.000000  -0.000000
    15  H   -0.000000   0.000000  -0.000000   0.000000  -0.000000   0.000000
    16  C    0.000000  -0.000000  -0.000000  -0.000000   0.000000   0.000000
    17  H   -0.000000   0.000000   0.000000   0.000000   0.000000  -0.000000
    18  H   -0.000000  -0.000000  -0.000000  -0.000000   0.000000   0.000000
    19  N    0.000000  -0.000000   0.000000  -0.000000  -0.000000   0.000000
    20  C    0.000000  -0.000000  -0.000000   0.000000  -0.000000  -0.000000
    21  H    0.000000  -0.000000   0.000000  -0.000000   0.000000  -0.000000
    22  N    0.000004  -0.000000  -0.000000  -0.000000   0.000000  -0.000000
    23  C   -0.000004  -0.000000  -0.000000  -0.000007   0.000000   0.000000
    24  H   -0.000014   0.000000   0.000001   0.000031  -0.000001  -0.000000
    25  C   -0.000000  -0.000000  -0.000000  -0.000000   0.000000   0.000000
    26  H    0.000000  -0.000000  -0.000000  -0.000000   0.000000  -0.000000
    27  C   -0.000182   0.000001  -0.000014   0.000004  -0.000000   0.000000
    28  H    0.000002  -0.000000   0.000000  -0.000000   0.000000  -0.000000
    29  H   -0.000027   0.000000   0.000026   0.000000  -0.000000   0.000000
    30  C    0.005571  -0.000097  -0.000454  -0.000086   0.000007  -0.000001
    31  H   -0.000236   0.000011   0.000032   0.000002  -0.000000   0.000000
    32  H   -0.000007  -0.000019  -0.000013  -0.000003   0.000000   0.000000
    33  O   -0.053007   0.002942   0.001016   0.004647  -0.000150   0.000011
    34  C    0.380036  -0.048333  -0.041977  -0.070878   0.006567  -0.000212
    35  H   -0.050608   0.000758   0.000058   0.003826  -0.000175   0.000003
    36  H   -0.027112  -0.000473   0.004452   0.000715  -0.000173   0.000006
    37  C    4.783796   0.395902   0.384498   0.209626  -0.043668   0.004522
    38  H    0.395902   0.569379  -0.034891  -0.039996  -0.003475  -0.000153
    39  H    0.384498  -0.034891   0.569181  -0.038485  -0.005309   0.000089
    40  O    0.209626  -0.039996  -0.038485   8.475214   0.195281  -0.035525
    41  C   -0.043668  -0.003475  -0.005309   0.195281   4.843991   0.399069
    42  H    0.004522  -0.000153   0.000089  -0.035525   0.399069   0.496764
    43  H   -0.007587  -0.000897   0.006112  -0.036738   0.387705  -0.029291
    44  H   -0.001843   0.004292  -0.000610  -0.033559   0.386523  -0.022307
              43         44
     1  C    0.000000  -0.000000
     2  H   -0.000000   0.000000
     3  H   -0.000000  -0.000000
     4  H    0.000000   0.000000
     5  O    0.000000   0.000000
     6  C   -0.000000  -0.000000
     7  H    0.000000   0.000000
     8  H    0.000000   0.000000
     9  C   -0.000000  -0.000000
    10  H   -0.000000   0.000000
    11  H    0.000000   0.000000
    12  O    0.000000   0.000000
    13  C    0.000000  -0.000000
    14  H    0.000000  -0.000000
    15  H    0.000000   0.000000
    16  C    0.000000  -0.000000
    17  H    0.000000   0.000000
    18  H    0.000000  -0.000000
    19  N   -0.000000  -0.000000
    20  C    0.000000   0.000000
    21  H   -0.000000  -0.000000
    22  N   -0.000000   0.000000
    23  C   -0.000000  -0.000000
    24  H    0.000000   0.000000
    25  C   -0.000000  -0.000000
    26  H   -0.000000  -0.000000
    27  C    0.000000  -0.000000
    28  H   -0.000000  -0.000000
    29  H    0.000000   0.000000
    30  C   -0.000000   0.000000
    31  H   -0.000000   0.000000
    32  H    0.000000  -0.000000
    33  O   -0.000016   0.000003
    34  C   -0.000063  -0.000300
    35  H    0.000017   0.000005
    36  H    0.000019  -0.000015
    37  C   -0.007587  -0.001843
    38  H   -0.000897   0.004292
    39  H    0.006112  -0.000610
    40  O   -0.036738  -0.033559
    41  C    0.387705   0.386523
    42  H   -0.029291  -0.022307
    43  H    0.562973  -0.036694
    44  H   -0.036694   0.528886
 Mulliken charges:
               1
     1  C   -0.154020
     2  H    0.177205
     3  H    0.173439
     4  H    0.171893
     5  O   -0.690377
     6  C    0.009464
     7  H    0.168196
     8  H    0.191358
     9  C    0.000218
    10  H    0.125640
    11  H    0.175306
    12  O   -0.638035
    13  C    0.023814
    14  H    0.192776
    15  H    0.196523
    16  C   -0.207935
    17  H    0.222571
    18  H    0.226363
    19  N   -0.594562
    20  C    0.432652
    21  H    0.329499
    22  N   -0.620521
    23  C    0.045458
    24  H    0.308410
    25  C    0.040990
    26  H    0.297275
    27  C   -0.136315
    28  H    0.211287
    29  H    0.236125
    30  C   -0.024776
    31  H    0.178547
    32  H    0.195252
    33  O   -0.617581
    34  C   -0.017188
    35  H    0.147962
    36  H    0.174570
    37  C    0.020340
    38  H    0.155047
    39  H    0.156287
    40  O   -0.634069
    41  C   -0.166191
    42  H    0.187024
    43  H    0.154461
    44  H    0.175618
 Sum of Mulliken charges =   1.00000
 Mulliken charges with hydrogens summed into heavy atoms:
               1
     1  C    0.368517
     5  O   -0.690377
     6  C    0.369018
     9  C    0.301165
    12  O   -0.638035
    13  C    0.413112
    16  C    0.240999
    19  N   -0.594562
    20  C    0.762151
    22  N   -0.620521
    23  C    0.353868
    25  C    0.338265
    27  C    0.311097
    30  C    0.349023
    33  O   -0.617581
    34  C    0.305344
    37  C    0.331673
    40  O   -0.634069
    41  C    0.350912
 DipInt: DoE/N= T F RetVal/Mat= T F Init=T NMatP=  1 IDeriv=0 Min/MaxMlt=  0  4
 Entering OneElI...
 OneElI was handed  3220936132 working-precision words.
 Multipole integrals L=0 to 4 MinM= 0 MaxM= 0.
 Requested accuracy = 0.1000D-12
 PrtBox:  NBox=     1 Levels=  1 BoxLen=   35.86 SMaxX=       24.42
          Shift=           10.513429            6.172401            3.262239
 Box      1 Number                   0 centers from      1 to    126:
 ShPair: Thresh= 1.00D-13 NBox=     1 BxSize= 3.59D+01 RnKept= 2.12D+01
         NSMCal=                 8001 NSMKep=                5644
 PrmmSu-InSpLW:  IPartL=    0 NPrtUS=    1 NPrtUL=    1 DoSpLW=F IThBeg=    0 IThEnd=    0 NThAct=    1.
 PrsmSu:  NPrtUS=   1 ThrOK=F IAlg=1 NPAlg=1 LenDen=           0 ISkipM=0 DoSpLW=F IThBeg=    0 IThEnd=    0.
 Prism:   IPart=     0 DynPar=F LinDyn=F Incr=          56.
 PRISM was handed  3220472206 working-precision words and  5644 shell-pairs
 IPart=  0 NShTot=        5644 NBatch=          53 AvBLen=       106.5
 PrsmSu-ThDecC:  IPartSL=    0    0 NPrtUSL=    1    1 IThBeg=    0 IThEnd=    0 CPU=   -1 GPU=   -1 NThAct=    1.
 PrSmSu:  NxtVal=             57.
 Electronic moments (au):
       -148.00000000         -0.98404575         -0.14998216          0.85631539
      -7348.73154145      -1389.31544953       -300.18930665          6.77987990
         -3.27860915         -0.42410067     -16675.15527957       -388.19236557
        -24.41077614       2455.19104513       1176.66906799        402.60710389
        253.79684190         48.54664828        389.54290514       -232.08822299
    -669838.67092086     -29515.23401786      -2023.85080815      49427.14808916
       -381.19870309       4920.89225182       1588.17688097       -111.87950118
         49.37483477     -64895.04259622     -11574.24534059      -2985.17793039
       2413.09301524      -2553.58807485       -396.50401030
 Electronic spatial extent (au):  <R**2>=           9038.2363
 DipInt: DoE/N= F T RetVal/Mat= T F Init=T NMatP=  1 IDeriv=0 Min/MaxMlt=  0  4
 Nuclear    moments (au):
        149.00000000         -0.00000000         -0.00000000         -0.00000000
       7307.45652100       1325.86419815        222.14988775          0.00000000
          0.00000000          0.00000000      16765.84370634        371.40099145
         27.89461841      -2491.60722979      -1174.61163358       -345.23484024
       -263.56229788        -49.84785730       -405.67588972        246.34238686
     650829.78608137      25215.14755181       1083.78414768     -49903.67041736
        414.14516253      -4891.34913131      -1571.89967096         93.50035691
        -20.84015563      60827.49075615       7280.35928013       2077.47037186
      -2662.34490783       2633.50460817        398.61172906
 Total      moments (au):
          1.00000000         -0.98404575         -0.14998216          0.85631539
        -41.27502046        -63.45125138        -78.03941890          6.77987990
         -3.27860915         -0.42410067         90.68842677        -16.79137412
          3.48384226        -36.41618466          2.05743441         57.37226366
         -9.76545598         -1.30120902        -16.13298459         14.25416387
     -19008.88483949      -4300.08646605       -940.06666048       -476.52232820
         32.94645944         29.54312051         16.27721000        -18.37914427
         28.53467914      -4067.55184006      -4293.88606046       -907.70755853
       -249.25189258         79.91653332          2.10771876
 Traceless Quadrup. (au):
         19.64687645         -2.52935447        -17.11752199          6.77987990
         -3.27860915         -0.42410067
 Charge=              1.0000 electrons
 Dipole moment (field-independent basis, Debye):
    X=             -2.5012    Y=             -0.3812    Z=              2.1765  Tot=              3.3375
 Quadrupole moment (field-independent basis, Debye-Ang):
   XX=            -55.5163   YY=            -85.3441   ZZ=           -104.9657
   XY=              9.1192   XZ=             -4.4098   YZ=             -0.5704
 Traceless Quadrupole moment (field-independent basis, Debye-Ang):
   XX=             26.4257   YY=             -3.4021   ZZ=            -23.0237
   XY=              9.1192   XZ=             -4.4098   YZ=             -0.5704
 Octapole moment (field-independent basis, Debye-Ang**2):
  XXX=             64.5485  YYY=            -11.9515  ZZZ=              2.4797  XYY=            -25.9196
  XXY=              1.4644  XXZ=             40.8354  XZZ=             -6.9507  YZZ=             -0.9262
  YYZ=            -11.4828  XYZ=             10.1456
 Hexadecapole moment (field-independent basis, Debye-Ang**3):
 XXXX=          -7159.6575 YYYY=          -1619.6188 ZZZZ=           -354.0742 XXXY=           -179.4812
 XXXZ=             12.4092 YYYX=             11.1274 YYYZ=              6.1308 ZZZX=             -6.9225
 ZZZY=             10.7475 XXYY=          -1532.0351 XXZZ=          -1617.2834 YYZZ=           -341.8862
 XXYZ=            -93.8802 YYXZ=             30.1004 ZZXY=              0.7939
 N-N= 1.507491670303D+03 E-N=-5.138778701323D+03  KE= 9.122846516483D+02
 Entering OneElI...
 OneElI was handed  3220990933 working-precision words.
 Calculate electrostatic properties
    NBasis =   335  MinDer = 0  MaxDer = 0
    NGrid  =    44  NMatD  =   1
 Requested accuracy = 0.1000D-12
 PrtBox:  NBox=     1 Levels=  1 BoxLen=   29.89 SMaxX=       24.42
          Shift=           10.513429            6.172401            3.262239
 Box      1 Number                   0 centers from      1 to    126:
 ShPair: Thresh= 1.00D-13 NBox=     1 BxSize= 2.99D+01 RnKept= 1.79D+01
         NSMCal=                 8001 NSMKep=                4858
 PrmmSu-InSpLW:  IPartL=    0 NPrtUS=   24 NPrtUL=    1 DoSpLW=F IThBeg=    0 IThEnd=   23 NThAct=   24.
 PrsmSu:  NPrtUS=  24 ThrOK=T IAlg=1 NPAlg=1 LenDen=           0 ISkipM=0 DoSpLW=F IThBeg=    0 IThEnd=   23.
 Prism:   IPart=     0 DynPar=F LinDyn=F Incr=          89.
 PRISM was handed   134061002 working-precision words and  4858 shell-pairs
 PRISM was handed   134061002 working-precision words and  4858 shell-pairs
 PRISM was handed   134061002 working-precision words and  4858 shell-pairs
 PRISM was handed   134061002 working-precision words and  4858 shell-pairs
 PRISM was handed   134061002 working-precision words and  4858 shell-pairs
 PRISM was handed   134061002 working-precision words and  4858 shell-pairs
 PRISM was handed   134061002 working-precision words and  4858 shell-pairs
 PRISM was handed   134061002 working-precision words and  4858 shell-pairs
 PRISM was handed   134061002 working-precision words and  4858 shell-pairs
 PRISM was handed   134061002 working-precision words and  4858 shell-pairs
 PRISM was handed   134061002 working-precision words and  4858 shell-pairs
 PRISM was handed   134061002 working-precision words and  4858 shell-pairs
 PRISM was handed   134061002 working-precision words and  4858 shell-pairs
 PRISM was handed   134061002 working-precision words and  4858 shell-pairs
 PRISM was handed   134061002 working-precision words and  4858 shell-pairs
 PRISM was handed   134061002 working-precision words and  4858 shell-pairs
 PRISM was handed   134061002 working-precision words and  4858 shell-pairs
 PRISM was handed   134061002 working-precision words and  4858 shell-pairs
 PRISM was handed   134061002 working-precision words and  4858 shell-pairs
 PRISM was handed   134061002 working-precision words and  4858 shell-pairs
 PRISM was handed   134061002 working-precision words and  4858 shell-pairs
 PRISM was handed   134061002 working-precision words and  4858 shell-pairs
 PRISM was handed   134061002 working-precision words and  4858 shell-pairs
 PRISM was handed   134061002 working-precision words and  4858 shell-pairs
 IPart=  0 NShTot=       10120 NBatch=         230 AvBLen=        44.0
 PrsmSu-ThDecC:  IPartSL=    0    0 NPrtUSL=   24    1 IThBeg=    0 IThEnd=   23 CPU=   -1 GPU=   -1 NThAct=   24.
 IPart= 22 NShTot=        8184 NBatch=         186 AvBLen=        44.0
 PrsmSu-ThDecC:  IPartSL=   22    0 NPrtUSL=   24    1 IThBeg=    0 IThEnd=   23 CPU=   -1 GPU=   -1 NThAct=   23.
 IPart= 23 NShTot=        8140 NBatch=         185 AvBLen=        44.0
 PrsmSu-ThDecC:  IPartSL=   23    0 NPrtUSL=   24    1 IThBeg=    0 IThEnd=   23 CPU=   -1 GPU=   -1 NThAct=   22.
 IPart= 19 NShTot=        8316 NBatch=         189 AvBLen=        44.0
 PrsmSu-ThDecC:  IPartSL=   19    0 NPrtUSL=   24    1 IThBeg=    0 IThEnd=   23 CPU=   -1 GPU=   -1 NThAct=   21.
 IPart= 20 NShTot=        8316 NBatch=         189 AvBLen=        44.0
 PrsmSu-ThDecC:  IPartSL=   20    0 NPrtUSL=   24    1 IThBeg=    0 IThEnd=   23 CPU=   -1 GPU=   -1 NThAct=   20.
 IPart= 14 NShTot=        8712 NBatch=         198 AvBLen=        44.0
 PrsmSu-ThDecC:  IPartSL=   14    0 NPrtUSL=   24    1 IThBeg=    0 IThEnd=   23 CPU=   -1 GPU=   -1 NThAct=   19.
 IPart= 18 NShTot=        8448 NBatch=         192 AvBLen=        44.0
 PrsmSu-ThDecC:  IPartSL=   18    0 NPrtUSL=   24    1 IThBeg=    0 IThEnd=   23 CPU=   -1 GPU=   -1 NThAct=   18.
 IPart=  2 NShTot=        9768 NBatch=         222 AvBLen=        44.0
 PrsmSu-ThDecC:  IPartSL=    2    0 NPrtUSL=   24    1 IThBeg=    0 IThEnd=   23 CPU=   -1 GPU=   -1 NThAct=   17.
 IPart= 13 NShTot=        8800 NBatch=         200 AvBLen=        44.0
 IPart=  5 NShTot=        9328 NBatch=         212 AvBLen=        44.0
 IPart=  9 NShTot=        8976 NBatch=         204 AvBLen=        44.0
 IPart= 17 NShTot=        8448 NBatch=         192 AvBLen=        44.0
 PrsmSu-ThDecC:  IPartSL=   13    0 NPrtUSL=   24    1 IThBeg=    0 IThEnd=   23 CPU=   -1 GPU=   -1 NThAct=   16.
 PrsmSu-ThDecC:  IPartSL=    9    0 NPrtUSL=   24    1 IThBeg=    0 IThEnd=   23 CPU=   -1 GPU=   -1 NThAct=   15.
 PrsmSu-ThDecC:  IPartSL=   17    0 NPrtUSL=   24    1 IThBeg=    0 IThEnd=   23 CPU=   -1 GPU=   -1 NThAct=   14.
 PrsmSu-ThDecC:  IPartSL=    5    0 NPrtUSL=   24    1 IThBeg=    0 IThEnd=   23 CPU=   -1 GPU=   -1 NThAct=   13.
 IPart= 21 NShTot=        8184 NBatch=         186 AvBLen=        44.0
 PrsmSu-ThDecC:  IPartSL=   21    0 NPrtUSL=   24    1 IThBeg=    0 IThEnd=   23 CPU=   -1 GPU=   -1 NThAct=   12.
 IPart= 16 NShTot=        8536 NBatch=         194 AvBLen=        44.0
 PrsmSu-ThDecC:  IPartSL=   16    0 NPrtUSL=   24    1 IThBeg=    0 IThEnd=   23 CPU=   -1 GPU=   -1 NThAct=   11.
 IPart=  4 NShTot=        9460 NBatch=         215 AvBLen=        44.0
 PrsmSu-ThDecC:  IPartSL=    4    0 NPrtUSL=   24    1 IThBeg=    0 IThEnd=   23 CPU=   -1 GPU=   -1 NThAct=   10.
 IPart=  3 NShTot=        9592 NBatch=         218 AvBLen=        44.0
 PrsmSu-ThDecC:  IPartSL=    3    0 NPrtUSL=   24    1 IThBeg=    0 IThEnd=   23 CPU=   -1 GPU=   -1 NThAct=    9.
 IPart= 11 NShTot=        8844 NBatch=         201 AvBLen=        44.0
 PrsmSu-ThDecC:  IPartSL=   11    0 NPrtUSL=   24    1 IThBeg=    0 IThEnd=   23 CPU=   -1 GPU=   -1 NThAct=    8.
 IPart=  1 NShTot=        9988 NBatch=         227 AvBLen=        44.0
 IPart= 15 NShTot=        8624 NBatch=         196 AvBLen=        44.0
 PrsmSu-ThDecC:  IPartSL=    1    0 NPrtUSL=   24    1 IThBeg=    0 IThEnd=   23 CPU=   -1 GPU=   -1 NThAct=    7.
 PrsmSu-ThDecC:  IPartSL=   15    0 NPrtUSL=   24    1 IThBeg=    0 IThEnd=   23 CPU=   -1 GPU=   -1 NThAct=    6.
 IPart=  7 NShTot=        9108 NBatch=         207 AvBLen=        44.0
 PrsmSu-ThDecC:  IPartSL=    7    0 NPrtUSL=   24    1 IThBeg=    0 IThEnd=   23 CPU=   -1 GPU=   -1 NThAct=    5.
 IPart=  6 NShTot=        9108 NBatch=         207 AvBLen=        44.0
 PrsmSu-ThDecC:  IPartSL=    6    0 NPrtUSL=   24    1 IThBeg=    0 IThEnd=   23 CPU=   -1 GPU=   -1 NThAct=    4.
 IPart= 12 NShTot=        8844 NBatch=         201 AvBLen=        44.0
 PrsmSu-ThDecC:  IPartSL=   12    0 NPrtUSL=   24    1 IThBeg=    0 IThEnd=   23 CPU=   -1 GPU=   -1 NThAct=    3.
 IPart= 10 NShTot=        8932 NBatch=         203 AvBLen=        44.0
 PrsmSu-ThDecC:  IPartSL=   10    0 NPrtUSL=   24    1 IThBeg=    0 IThEnd=   23 CPU=   -1 GPU=   -1 NThAct=    2.
 IPart=  8 NShTot=        8976 NBatch=         204 AvBLen=        44.0
 PrsmSu-ThDecC:  IPartSL=    8    0 NPrtUSL=   24    1 IThBeg=    0 IThEnd=   23 CPU=   -1 GPU=   -1 NThAct=    1.
 PrSmSu:  NxtVal=           2137.
 --------------------------------------------------------
       Center         ----      EFG at Nuclei      ----
                      3XX-RR        3YY-RR        3ZZ-RR
 --------------------------------------------------------
     1   Atom        0.212851     -0.337137      0.124287
     2   Atom        0.143885      0.128949     -0.272834
     3   Atom       -0.172715      0.089397      0.083318
     4   Atom       -0.144727      0.025699      0.119028
     5   Atom       -0.627712     -0.614701      1.242412
     6   Atom       -0.230151      0.018655      0.211496
     7   Atom        0.024171      0.083107     -0.107278
     8   Atom        0.043284      0.139949     -0.183233
     9   Atom        0.066403      0.079149     -0.145552
    10   Atom       -0.010894      0.149605     -0.138710
    11   Atom       -0.144611      0.032217      0.112395
    12   Atom        1.037960     -1.006344     -0.031616
    13   Atom        0.026205     -0.185159      0.158953
    14   Atom        0.053768      0.122195     -0.175962
    15   Atom       -0.034680     -0.081650      0.116329
    16   Atom       -0.125440     -0.011895      0.137335
    17   Atom        0.084523     -0.220605      0.136082
    18   Atom        0.086801      0.117922     -0.204723
    19   Atom        0.068148     -0.106744      0.038596
    20   Atom       -0.012654     -0.076304      0.088958
    21   Atom        0.044040      0.058108     -0.102148
    22   Atom       -0.071488      0.124921     -0.053433
    23   Atom        0.144067     -0.024769     -0.119298
    24   Atom       -0.087388      0.111983     -0.024594
    25   Atom       -0.047983      0.150538     -0.102555
    26   Atom        0.141357     -0.082217     -0.059140
    27   Atom        0.044429     -0.150638      0.106209
    28   Atom       -0.027251     -0.121815      0.149065
    29   Atom        0.108723      0.114306     -0.223029
    30   Atom       -0.147530     -0.012249      0.159779
    31   Atom        0.105161      0.127778     -0.232939
    32   Atom        0.093120     -0.163844      0.070724
    33   Atom       -1.692205      0.256662      1.435543
    34   Atom       -0.236540      0.126063      0.110477
    35   Atom        0.112947     -0.228156      0.115209
    36   Atom        0.129188      0.151916     -0.281104
    37   Atom        0.138403     -0.234097      0.095694
    38   Atom       -0.175462      0.053930      0.121532
    39   Atom        0.141759      0.133412     -0.275171
    40   Atom        0.433022     -1.496326      1.063304
    41   Atom       -0.038235     -0.097271      0.135506
    42   Atom        0.060105     -0.191474      0.131369
    43   Atom        0.142004      0.132255     -0.274259
    44   Atom       -0.194580      0.130104      0.064477
 --------------------------------------------------------
                        XY            XZ            YZ
 --------------------------------------------------------
     1   Atom       -0.077349      0.023970      0.237109
     2   Atom       -0.005777     -0.014823     -0.033431
     3   Atom       -0.130158     -0.150713     -0.051917
     4   Atom        0.171524      0.092245     -0.047422
     5   Atom       -1.109082     -0.078149      1.262144
     6   Atom       -0.227680      0.033480      0.041786
     7   Atom        0.075773      0.174855     -0.116876
     8   Atom       -0.004856     -0.176636      0.013897
     9   Atom        0.137455      0.183932     -0.207436
    10   Atom        0.007848     -0.212320     -0.013235
    11   Atom       -0.171731      0.103337      0.053080
[...]
 9943 Fit       0.078864
 9944 Fit       0.081806
 9945 Fit       0.070947
 9946 Fit       0.071699
 9947 Fit       0.070594
 9948 Fit       0.075508
 9949 Fit       0.077872
 9950 Fit       0.080715
 9951 Fit       0.079748
 9952 Fit       0.064506
 9953 Fit       0.068204
 9954 Fit       0.064711
 9955 Fit       0.070434
 9956 Fit       0.071091
 9957 Fit       0.069429
 9958 Fit       0.069130
 9959 Fit       0.069552
 9960 Fit       0.070677
 9961 Fit       0.072529
 9962 Fit       0.075173
 9963 Fit       0.070498
 9964 Fit       0.068558
 9965 Fit       0.068196
 9966 Fit       0.068443
 9967 Fit       0.069272
 9968 Fit       0.070693
 9969 Fit       0.072753
 9970 Fit       0.075540
 9971 Fit       0.069589
 9972 Fit       0.067960
 9973 Fit       0.067548
 9974 Fit       0.067724
 9975 Fit       0.068446
 9976 Fit       0.069714
 9977 Fit       0.071569
 9978 Fit       0.074097
 9979 Fit       0.077435
 9980 Fit       0.069046
 9981 Fit       0.067567
 9982 Fit       0.067124
 9983 Fit       0.067243
 9984 Fit       0.067867
 9985 Fit       0.068985
 9986 Fit       0.070629
 9987 Fit       0.072867
 9988 Fit       0.075818
 9989 Fit       0.079678
 9990 Fit       0.068682
 9991 Fit       0.067310
 9992 Fit       0.066868
 9993 Fit       0.066974
 9994 Fit       0.067563
 9995 Fit       0.068618
 9996 Fit       0.070163
 9997 Fit       0.072257
 9998 Fit       0.075006
 9999 Fit       0.078579
 **** Fit       0.068437
 **** Fit       0.067131
 **** Fit       0.066732
 **** Fit       0.066899
 **** Fit       0.067561
 **** Fit       0.068701
 **** Fit       0.070347
 **** Fit       0.072564
 **** Fit       0.075463
 **** Fit       0.068251
 **** Fit       0.066985
 **** Fit       0.066700
 **** Fit       0.066992
 **** Fit       0.067797
 **** Fit       0.069107
 **** Fit       0.070960
 **** Fit       0.073434
 **** Fit       0.076648
 **** Fit       0.067995
 **** Fit       0.066856
 **** Fit       0.066768
 **** Fit       0.067226
 **** Fit       0.068194
 **** Fit       0.069680
 **** Fit       0.071731
 **** Fit       0.074425
 **** Fit       0.077867
 **** Fit       0.067585
 **** Fit       0.066760
 **** Fit       0.066975
 **** Fit       0.067739
 **** Fit       0.069061
 **** Fit       0.070983
 **** Fit       0.073573
 **** Fit       0.076913
 **** Fit       0.067105
 **** Fit       0.066748
 **** Fit       0.067363
 **** Fit       0.068512
 **** Fit       0.070269
 **** Fit       0.072706
 **** Fit       0.075890
 **** Fit       0.066544
 **** Fit       0.066903
 **** Fit       0.068058
 **** Fit       0.069790
 **** Fit       0.072249
 **** Fit       0.064758
 **** Fit       0.066019
 **** Fit       0.067351
 **** Fit       0.069317
 **** Fit       0.072064
 **** Fit       0.065609
 **** Fit       0.068281
 **** Fit       0.071459
 **** Fit       0.076488
 **** Fit       0.074948
 **** Fit       0.076082
 **** Fit       0.077947
 **** Fit       0.078343
 **** Fit       0.076940
 **** Fit       0.075450
 **** Fit       0.073737
 **** Fit       0.074306
 **** Fit       0.075801
 **** Fit       0.077850
 **** Fit       0.079784
 **** Fit       0.080817
 **** Fit       0.080475
 **** Fit       0.079043
 **** Fit       0.077345
 **** Fit       0.075973
 **** Fit       0.074918
 **** Fit       0.074068
 **** Fit       0.072860
 **** Fit       0.073115
 **** Fit       0.074096
 **** Fit       0.075712
 **** Fit       0.077771
 **** Fit       0.079989
 **** Fit       0.081983
 **** Fit       0.083316
 **** Fit       0.083614
 **** Fit       0.082779
 **** Fit       0.081120
 **** Fit       0.079214
 **** Fit       0.077579
 **** Fit       0.076464
 **** Fit       0.075753
 **** Fit       0.075057
 **** Fit       0.074151
 **** Fit       0.073285
 **** Fit       0.072325
 **** Fit       0.072372
 **** Fit       0.073081
 **** Fit       0.074396
 **** Fit       0.076219
 **** Fit       0.078417
 **** Fit       0.080811
 **** Fit       0.083162
 **** Fit       0.085155
 **** Fit       0.086429
 **** Fit       0.086685
 **** Fit       0.085814
 **** Fit       0.084015
 **** Fit       0.081777
 **** Fit       0.079615
 **** Fit       0.077906
 **** Fit       0.076866
 **** Fit       0.072931
 **** Fit       0.072144
 **** Fit       0.072026
 **** Fit       0.072570
 **** Fit       0.073717
 **** Fit       0.075391
 **** Fit       0.077500
 **** Fit       0.079936
 **** Fit       0.082560
 **** Fit       0.085182
 **** Fit       0.087528
 **** Fit       0.089230
 **** Fit       0.089925
 **** Fit       0.085248
 **** Fit       0.082533
 **** Fit       0.080054
 **** Fit       0.078082
 **** Fit       0.076823
 **** Fit       0.072962
 **** Fit       0.075004
 **** Fit       0.076972
 **** Fit       0.079317
 **** Fit       0.081950
 **** Fit       0.084759
 **** Fit       0.087596
 **** Fit       0.090224
 **** Fit       0.092249
 **** Fit       0.077101
 **** Fit       0.075761
 **** Fit       0.075241
 **** Fit       0.072778
 **** Fit       0.071061
 **** Fit       0.069583
 **** Fit       0.068433
 **** Fit       0.069140
 **** Fit       0.068651
 **** Fit       0.068349
 **** Fit       0.068962
 **** Fit       0.069476
 **** Fit       0.069409
 **** Fit       0.069556
 **** Fit       0.070402
 **** Fit       0.070039
 **** Fit       0.071472
 **** Fit       0.070320
 **** Fit       0.073393
 **** Fit       0.070949
 **** Fit       0.069524
 **** Fit       0.071733
 **** Fit       0.069176
 **** Fit       0.076010
 **** Fit       0.071427
 **** Fit       0.068159
 **** Fit       0.066165
 **** Fit       0.072133
 **** Fit       0.067979
 **** Fit       0.065057
 **** Fit       0.063301
 **** Fit       0.061997
 **** Fit       0.076836
 **** Fit       0.072105
 **** Fit       0.067735
 **** Fit       0.064257
 **** Fit       0.061828
 **** Fit       0.060339
 **** Fit       0.058622
 **** Fit       0.060350
 **** Fit       0.062982
 **** Fit       0.068932
 **** Fit       0.065019
 **** Fit       0.061774
 **** Fit       0.059439
 **** Fit       0.057943
 **** Fit       0.056055
 **** Fit       0.057518
 **** Fit       0.059911
 **** Fit       0.067675
 **** Fit       0.064015
 **** Fit       0.060632
 **** Fit       0.058036
 **** Fit       0.056338
 **** Fit       0.055356
 **** Fit       0.055252
 **** Fit       0.055501
 **** Fit       0.057503
 **** Fit       0.060643
 **** Fit       0.063284
 **** Fit       0.059995
 **** Fit       0.057156
 **** Fit       0.055343
 **** Fit       0.054531
 **** Fit       0.054578
 **** Fit       0.055947
 **** Fit       0.058644
 **** Fit       0.061009
 **** Fit       0.059848
 **** Fit       0.056915
 **** Fit       0.055304
 **** Fit       0.057397
 **** Fit       0.072642
 **** Fit       0.072759
 **** Fit       0.072881
 **** Fit       0.072704
 **** Fit       0.072172
 **** Fit       0.071334
 **** Fit       0.070278
 **** Fit       0.069103
 **** Fit       0.067917
 **** Fit       0.066825
 **** Fit       0.065907
 **** Fit       0.065205
 **** Fit       0.064728
 **** Fit       0.064463
 **** Fit       0.064663
 **** Fit       0.065446
 **** Fit       0.066507
 **** Fit       0.067906
 **** Fit       0.069690
 **** Fit       0.070966
 **** Fit       0.072086
 **** Fit       0.072647
 **** Fit       0.072650
 **** Fit       0.072190
 **** Fit       0.069053
 **** Fit       0.067772
 **** Fit       0.066568
 **** Fit       0.065532
 **** Fit       0.064716
 **** Fit       0.064129
 **** Fit       0.063756
 **** Fit       0.063577
 **** Fit       0.063578
 **** Fit       0.063754
 **** Fit       0.064110
 **** Fit       0.064247
 **** Fit       0.065000
 **** Fit       0.065985
 **** Fit       0.067275
 **** Fit       0.068946
 **** Fit       0.071050
 **** Fit       0.069732
 **** Fit       0.071677
 **** Fit       0.072724
 **** Fit       0.065628
 **** Fit       0.064617
 **** Fit       0.063862
 **** Fit       0.063351
 **** Fit       0.063059
 **** Fit       0.062959
 **** Fit       0.063036
 **** Fit       0.063277
 **** Fit       0.063680
 **** Fit       0.067013
 **** Fit       0.068528
 **** Fit       0.070510
 **** Fit       0.071594
 **** Fit       0.064744
 **** Fit       0.063803
 **** Fit       0.063142
 **** Fit       0.062734
 **** Fit       0.062549
 **** Fit       0.062560
 **** Fit       0.062749
 **** Fit       0.063096
 **** Fit       0.063584
 **** Fit       0.070410
 **** Fit       0.070648
 **** Fit       0.064096
 **** Fit       0.063192
 **** Fit       0.062596
 **** Fit       0.062275
 **** Fit       0.062197
 **** Fit       0.062334
 **** Fit       0.062663
 **** Fit       0.063849
 **** Fit       0.062855
 **** Fit       0.062229
 **** Fit       0.061932
 **** Fit       0.061927
 **** Fit       0.062185
 **** Fit       0.062500
 **** Fit       0.061868
 **** Fit       0.061611
 **** Fit       0.061696
 **** Fit       0.062113
 **** Fit       0.061505
 **** Fit       0.061303
 **** Fit       0.061479
 **** Fit       0.062007
 **** Fit       0.061273
 **** Fit       0.060998
 **** Fit       0.061160
 **** Fit       0.061164
 **** Fit       0.060716
 **** Fit       0.060762
 **** Fit       0.061107
 **** Fit       0.060482
 **** Fit       0.060364
 **** Fit       0.061248
 **** Fit       0.060391
 **** Fit       0.060013
 **** Fit       0.060350
 **** Fit       0.059768
 **** Fit       0.059636
 **** Fit       0.060054
 **** Fit       0.061049
 **** Fit       0.061049
 **** Fit       0.060475
 **** Fit       0.059769
 **** Fit       0.059288
 **** Fit       0.059230
 **** Fit       0.057752
 **** Fit       0.058149
 **** Fit       0.059168
 **** Fit       0.059262
 **** Fit       0.058947
 **** Fit       0.058693
 **** Fit       0.058756
 **** Fit       0.058123
 **** Fit       0.057682
 **** Fit       0.056335
 **** Fit       0.056063
 **** Fit       0.057562
 **** Fit       0.057980
 **** Fit       0.057984
 **** Fit       0.058064
 **** Fit       0.056887
 **** Fit       0.055678
 **** Fit       0.056387
 **** Fit       0.057029
 **** Fit       0.055726
 **** Fit       0.071950
 **** Fit       0.070831
 **** Fit       0.069580
 **** Fit       0.068475
 **** Fit       0.073153
 **** Fit       0.072821
 **** Fit       0.071798
 **** Fit       0.070447
 **** Fit       0.069051
 **** Fit       0.067818
 **** Fit       0.066906
 **** Fit       0.073625
 **** Fit       0.073681
 **** Fit       0.072854
 **** Fit       0.071548
 **** Fit       0.070059
 **** Fit       0.068595
 **** Fit       0.067298
 **** Fit       0.066280
 **** Fit       0.065638
 **** Fit       0.071960
 **** Fit       0.074000
 **** Fit       0.074323
 **** Fit       0.073574
 **** Fit       0.072238
 **** Fit       0.070652
 **** Fit       0.069040
 **** Fit       0.067549
 **** Fit       0.066279
 **** Fit       0.065314
 **** Fit       0.064738
 **** Fit       0.071651
 **** Fit       0.074144
 **** Fit       0.074713
 **** Fit       0.074089
 **** Fit       0.072796
 **** Fit       0.071197
 **** Fit       0.069526
 **** Fit       0.067930
 **** Fit       0.066505
 **** Fit       0.065322
 **** Fit       0.064447
 **** Fit       0.063952
 **** Fit       0.072973
 **** Fit       0.074567
 **** Fit       0.074555
 **** Fit       0.073590
 **** Fit       0.072126
 **** Fit       0.070462
 **** Fit       0.068785
 **** Fit       0.067213
 **** Fit       0.065821
 **** Fit       0.064668
 **** Fit       0.063810
 **** Fit       0.063314
 **** Fit       0.070859
 **** Fit       0.073585
 **** Fit       0.074224
 **** Fit       0.073598
 **** Fit       0.072279
 **** Fit       0.070644
 **** Fit       0.068931
 **** Fit       0.067285
 **** Fit       0.065796
 **** Fit       0.064528
 **** Fit       0.063538
 **** Fit       0.062890
 **** Fit       0.062663
 **** Fit       0.070052
 **** Fit       0.072634
 **** Fit       0.073152
 **** Fit       0.072444
 **** Fit       0.071083
 **** Fit       0.069442
 **** Fit       0.067752
 **** Fit       0.066152
 **** Fit       0.064733
 **** Fit       0.063563
 **** Fit       0.062707
 **** Fit       0.062244
 **** Fit       0.068671
 **** Fit       0.071060
 **** Fit       0.071528
 **** Fit       0.070852
 **** Fit       0.069569
 **** Fit       0.068028
 **** Fit       0.066451
 **** Fit       0.064975
 **** Fit       0.063694
 **** Fit       0.062683
 **** Fit       0.062019
 **** Fit       0.066913
 **** Fit       0.069109
 **** Fit       0.069445
 **** Fit       0.068699
 **** Fit       0.067411
 **** Fit       0.065929
 **** Fit       0.064476
 **** Fit       0.063197
 **** Fit       0.062202
 **** Fit       0.061593
 **** Fit       0.064920
 **** Fit       0.066897
 **** Fit       0.067145
 **** Fit       0.066399
 **** Fit       0.065189
 **** Fit       0.063865
 **** Fit       0.062658
 **** Fit       0.061729
 **** Fit       0.064148
 **** Fit       0.064908
 **** Fit       0.064436
 **** Fit       0.063401
 **** Fit       0.062270
 **** Fit       0.061349
 **** Fit       0.062407
 **** Fit       0.062684
 **** Fit       0.061910
 **** Fit       0.069555
 **** Fit       0.068213
 **** Fit       0.069840
 **** Fit       0.071346
 **** Fit       0.070999
 **** Fit       0.069369
 **** Fit       0.068056
 **** Fit       0.067028
 **** Fit       0.068325
 **** Fit       0.070229
 **** Fit       0.072224
 **** Fit       0.073485
 **** Fit       0.073471
 **** Fit       0.072454
 **** Fit       0.070934
 **** Fit       0.069278
 **** Fit       0.067813
 **** Fit       0.066829
 **** Fit       0.066530
 **** Fit       0.066044
 **** Fit       0.067119
 **** Fit       0.068709
 **** Fit       0.070727
 **** Fit       0.072960
 **** Fit       0.076020
 **** Fit       0.075073
 **** Fit       0.073776
 **** Fit       0.072337
 **** Fit       0.070814
 **** Fit       0.069285
 **** Fit       0.067873
 **** Fit       0.066702
 **** Fit       0.065873
 **** Fit       0.065455
 **** Fit       0.065498
 **** Fit       0.065298
 **** Fit       0.066259
 **** Fit       0.067662
 **** Fit       0.069501
 **** Fit       0.071736
 **** Fit       0.075446
 **** Fit       0.074061
 **** Fit       0.072711
 **** Fit       0.071313
 **** Fit       0.069879
 **** Fit       0.068480
 **** Fit       0.067204
 **** Fit       0.066130
 **** Fit       0.065316
 **** Fit       0.064796
 **** Fit       0.064600
 **** Fit       0.064756
 **** Fit       0.064834
 **** Fit       0.065723
 **** Fit       0.067013
 **** Fit       0.068723
 **** Fit       0.070852
 **** Fit       0.075659
 **** Fit       0.074440
 **** Fit       0.073368
 **** Fit       0.072236
 **** Fit       0.070991
 **** Fit       0.069671
 **** Fit       0.068356
 **** Fit       0.067129
 **** Fit       0.066062
 **** Fit       0.065206
 **** Fit       0.064585
 **** Fit       0.064216
 **** Fit       0.064116
 **** Fit       0.064311
 **** Fit       0.064709
 **** Fit       0.065512
 **** Fit       0.066674
 **** Fit       0.068228
 **** Fit       0.070183
 **** Fit       0.074520
 **** Fit       0.073837
 **** Fit       0.073357
 **** Fit       0.072758
 **** Fit       0.071940
 **** Fit       0.070917
 **** Fit       0.069757
 **** Fit       0.068547
 **** Fit       0.067381
 **** Fit       0.066337
 **** Fit       0.065467
 **** Fit       0.064792
 **** Fit       0.064320
 **** Fit       0.064057
 **** Fit       0.064017
 **** Fit       0.064224
 **** Fit       0.065005
 **** Fit       0.065767
 **** Fit       0.066888
 **** Fit       0.068420
 **** Fit       0.070386
 **** Fit       0.064548
 **** Fit       0.064368
 **** Fit       0.065132
 **** Fit       0.063187
 **** Fit       0.063903
 **** Fit       0.065040
 **** Fit       0.066667
 **** Fit       0.068890
 **** Fit       0.062893
 **** Fit       0.062853
 **** Fit       0.062293
 **** Fit       0.063010
 **** Fit       0.064097
 **** Fit       0.065629
 **** Fit       0.067723
 **** Fit       0.062098
 **** Fit       0.061838
 **** Fit       0.061907
 **** Fit       0.061619
 **** Fit       0.062316
 **** Fit       0.063330
 **** Fit       0.064729
 **** Fit       0.066622
 **** Fit       0.069198
 **** Fit       0.061572
 **** Fit       0.061165
 **** Fit       0.061048
 **** Fit       0.061201
 **** Fit       0.061110
 **** Fit       0.061793
 **** Fit       0.062755
 **** Fit       0.064056
 **** Fit       0.065795
 **** Fit       0.068135
 **** Fit       0.061299
 **** Fit       0.060756
 **** Fit       0.060487
 **** Fit       0.060464
 **** Fit       0.060672
 **** Fit       0.060727
 **** Fit       0.061420
 **** Fit       0.062380
 **** Fit       0.063664
 **** Fit       0.065365
 **** Fit       0.067631
 **** Fit       0.060677
 **** Fit       0.060212
 **** Fit       0.060004
 **** Fit       0.060027
 **** Fit       0.060268
 **** Fit       0.060438
 **** Fit       0.061141
 **** Fit       0.062104
 **** Fit       0.063378
 **** Fit       0.065040
 **** Fit       0.067197
 **** Fit       0.060270
 **** Fit       0.059838
 **** Fit       0.059657
 **** Fit       0.059703
 **** Fit       0.059963
 **** Fit       0.060215
 **** Fit       0.060902
 **** Fit       0.061828
 **** Fit       0.063024
 **** Fit       0.064530
 **** Fit       0.066364
 **** Fit       0.059962
 **** Fit       0.059570
 **** Fit       0.059414
 **** Fit       0.059476
 **** Fit       0.059743
 **** Fit       0.060036
 **** Fit       0.060731
 **** Fit       0.061655
 **** Fit       0.062812
 **** Fit       0.064163
 **** Fit       0.065564
 **** Fit       0.059902
 **** Fit       0.059464
 **** Fit       0.059268
 **** Fit       0.059305
 **** Fit       0.059562
 **** Fit       0.059877
 **** Fit       0.060541
 **** Fit       0.061394
 **** Fit       0.062364
 **** Fit       0.063265
 **** Fit       0.063667
 **** Fit       0.059416
 **** Fit       0.059191
 **** Fit       0.059193
 **** Fit       0.059424
 **** Fit       0.059707
 **** Fit       0.060318
 **** Fit       0.061018
 **** Fit       0.061555
 **** Fit       0.061421
 **** Fit       0.059154
 **** Fit       0.059107
 **** Fit       0.059290
 **** Fit       0.059482
 **** Fit       0.059975
 **** Fit       0.060209
 **** Fit       0.059462
 **** Fit       0.058981
 **** Fit       0.059115
 **** Fit       0.059123
 **** Fit       0.059167
 **** Fit       0.058786
 **** Fit       0.058497
 -----------------------------------------------------------------
 Leave Link  602 at Mon May  6 13:15:27 2024, MaxMem=  3221225472 cpu:               7.5 elap:               0.3

 Test job not archived.
 1\1\FAU-PILGRIM\SP\RHF\6-31G(d)\C13H25N2O4(1+)\CHRISTIAN\06-May-2024\0
 \\#HF/6-31G* SCF=tight Test Pop=MK iop(6/33=2) iop(6/42=6)\\amb2oniom\
 \1,1\C,0,38.61,37.04,38.74\H,0,38.19,36.41,39.54\H,0,37.95,37.74,38.22
 \H,0,39.53,37.44,39.19\O,0,39.09,36.25,37.59\C,0,40.31,35.47,37.74\H,0
 ,41.18,36.1,37.52\H,0,40.35,34.89,38.67\C,0,40.31,34.51,36.56\H,0,40.1
 3,35.1,35.66\H,0,41.28,34.03,36.39\O,0,39.29,33.53,36.78\C,0,38.92,32.
 63,35.74\H,0,38.07,32.07,36.16\H,0,39.71,31.97,35.37\C,0,38.39,33.46,3
 4.59\H,0,38.22,32.79,33.74\H,0,39.16,34.08,34.13\N,0,37.16,34.2,34.81\
 C,0,37.21,35.6,34.83\H,0,38.,36.32,34.7\N,0,35.91,35.92,35.12\C,0,35.1
 3,34.78,35.4\H,0,34.11,34.84,35.74\C,0,35.95,33.68,35.17\H,0,35.76,32.
 63,35.36\C,0,35.33,37.25,35.03\H,0,35.94,37.89,35.68\H,0,35.54,37.63,3
 4.02\C,0,33.85,37.44,35.44\H,0,33.65,37.06,36.45\H,0,33.7,38.52,35.43\
 O,0,33.03,36.95,34.41\C,0,31.69,37.32,34.56\H,0,31.57,38.39,34.78\H,0,
 31.25,36.7,35.35\C,0,31.,37.16,33.19\H,0,30.,37.6,33.29\H,0,31.64,37.6
 8,32.47\O,0,30.94,35.79,33.\C,0,30.3,35.37,31.75\H,0,30.7,34.36,31.6\H
 ,0,30.7,36.02,30.96\H,0,29.21,35.46,31.81\\Version=ES64L-G16RevA.03\St
 ate=1-A\HF=-914.8534204\RMSD=7.312e-09\Dipole=1.2665878,0.1075915,-0.3
 290837\Quadrupole=15.7110003,-4.061122,-11.6498783,-11.2661726,7.83330
 89,3.4333739\PG=C01 [X(C13H25N2O4)]\\@


 ONE BIG VICE IN A MAN IS APT TO KEEP OUT MANY SMALLER ONES.

                           -- BRET HARTE
 Job cpu time:       0 days  0 hours  3 minutes 29.4 seconds.
 Elapsed time:       0 days  0 hours  0 minutes  8.8 seconds.
 File lengths (MBytes):  RWF=     65 Int=      0 D2E=      0 Chk=      8 Scr=      1
 Normal termination of Gaussian 16 at Mon May  6 13:15:27 2024.
