 Entering Gaussian System, Link 0=/usr/local/SOFT/gaussian/g16/g16
 Input=plus_ion_280.com
 Output=plus_ion_280.log
 Initial command:
 /usr/local/SOFT/gaussian/g16/l1.exe "/scratch/matthiasable/g16job__98669__lBz0/Gau-98675.inp" -scrdir="/scratch/matthiasable/g16job__98669__lBz0/"
 Entering Link 1 = /usr/local/SOFT/gaussian/g16/l1.exe PID=     98677.

 Cite this work as:
 Gaussian 16, Revision A.03,
 M. J. Frisch, G. W. Trucks, H. B. Schlegel, G. E. Scuseria, 
 M. A. Robb, J. R. Cheeseman, G. Scalmani, V. Barone, 
 G. A. Petersson, H. Nakatsuji, X. Li, M. Caricato, A. V. Marenich, 
 J. Bloino, B. G. Janesko, R. Gomperts, B. Mennucci, H. P. Hratchian, 
 J. V. Ortiz, A. F. Izmaylov, J. L. Sonnenberg, D. Williams-Young, 
 F. Ding, F. Lipparini, F. Egidi, J. Goings, B. Peng, A. Petrone, 
 T. Henderson, D. Ranasinghe, V. G. Zakrzewski, J. Gao, N. Rega, 
 G. Zheng, W. Liang, M. Hada, M. Ehara, K. Toyota, R. Fukuda, 
 J. Hasegawa, M. Ishida, T. Nakajima, Y. Honda, O. Kitao, H. Nakai, 
 T. Vreven, K. Throssell, J. A. Montgomery, Jr., J. E. Peralta, 
 F. Ogliaro, M. J. Bearpark, J. J. Heyd, E. N. Brothers, K. N. Kudin, 
 V. N. Staroverov, T. A. Keith, R. Kobayashi, J. Normand, 
 K. Raghavachari, A. P. Rendell, J. C. Burant, S. S. Iyengar, 
 J. Tomasi, M. Cossi, J. M. Millam, M. Klene, C. Adamo, R. Cammi, 
 J. W. Ochterski, R. L. Martin, K. Morokuma, O. Farkas, 
 J. B. Foresman, and D. J. Fox, Gaussian, Inc., Wallingford CT, 2016.
 
 ******************************************
 Gaussian 16:  ES64L-G16RevA.03 25-Dec-2016
                10-Jul-2024 
 ******************************************
 %MEM=24GB
 %NPROC=24
 Will use up to   24 processors via shared memory.
 Default route: SCF=Tight MP2=FullDirect MaxDisk=1000GB
 -----------------------------------------------------------------
 # HF/GenECP SCF=tight Test Pop=(MK,ReadRadii) iop(6/33=2, 6/42=6)
 -----------------------------------------------------------------
 1/11=1,38=1,172=1/1;
 2/12=2,17=6,18=5,40=1/2;
 3/5=7,11=9,16=1,17=8,25=1,30=1/1,2,3;
 4//1;
 5/5=2,32=2,38=5/2;
 6/7=2,8=2,9=2,10=2,15=8,20=101,28=1,33=2,42=6/1,2;
 99/5=1,9=1/99;
 ---------
 amb2oniom
 ---------
 Symbolic Z-matrix:
 Charge =  0 Multiplicity = 1
 I-Imini--1.0000000   0     31.23     33.92     37.54    H 
 C-c3i-0.0065000      0     38.61     37.04     38.74    H 
 H-h1i-0.0652000      0     38.19     36.41     39.54    H 
 H-h1i-0.0652000      0     37.95     37.74     38.22    H 
 H-h1i-0.0652000      0     39.53     37.44     39.19    H 
 O-osi--0.3521000     0     39.09     36.25     37.59    H 
 C-c3i-0.0668000      0     40.31     35.47     37.74    H 
 H-h1i-0.0602000      0     41.18     36.1      37.52    H 
 H-h1i-0.0602000      0     40.35     34.89     38.67    H 
 C-c3i-0.0445000      0     40.31     34.51     36.56    H 
 H-h1i-0.0764000      0     40.13     35.1      35.66    H 
 H-h1i-0.0764000      0     41.28     34.03     36.39    H 
 O-osi--0.3409000     0     39.29     33.53     36.78    H 
 C-c3i-0.0625000      0     38.92     32.63     35.74    H 
 H-h1i-0.0643000      0     38.07     32.07     36.16    H 
 H-h1i-0.0643000      0     39.71     31.97     35.37    H 
 C-c3i--0.0200000     0     38.39     33.46     34.59    H 
 H-h1i-0.1005000      0     38.22     32.79     33.74    H 
 H-h1i-0.1005000      0     39.16     34.08     34.13    H 
 N-nai-0.0634000      0     37.16     34.2      34.81    H 
 C-cci--0.0221000     0     37.21     35.6      34.83    H 
 H-h5i-0.2275000      0     38.       36.32     34.7     H 
 N-nai-0.0634000      0     35.91     35.92     35.12    H 
 C-cci--0.1806000     0     35.13     34.78     35.4     H 
 H-h4i-0.2488000      0     34.11     34.84     35.74    H 
 C-cdi--0.1806000     0     35.95     33.68     35.17    H 
 H-h4i-0.2488000      0     35.76     32.63     35.36    H 
 C-c3i--0.0200000     0     35.33     37.25     35.03    H 
 H-h1i-0.1005000      0     35.94     37.89     35.68    H 
 H-h1i-0.1005000      0     35.54     37.63     34.02    H 
 C-c3i-0.0625000      0     33.85     37.44     35.44    H 
 H-h1i-0.0643000      0     33.65     37.06     36.45    H 
 H-h1i-0.0643000      0     33.7      38.52     35.43    H 
 O-osi--0.3409000     0     33.03     36.95     34.41    H 
 C-c3i-0.0445000      0     31.69     37.32     34.56    H 
 H-h1i-0.0764000      0     31.57     38.39     34.78    H 
 H-h1i-0.0764000      0     31.25     36.7      35.35    H 
 C-c3i-0.0668000      0     31.       37.16     33.19    H 
 H-h1i-0.0602000      0     30.       37.6      33.29    H 
 H-h1i-0.0602000      0     31.64     37.68     32.47    H 
 O-osi--0.3521000     0     30.94     35.79     33.      H 
 C-c3i-0.0065000      0     30.3      35.37     31.75    H 
 H-h1i-0.0652000      0     30.7      34.36     31.6     H 
 H-h1i-0.0652000      0     30.7      36.02     30.96    H 
 H-h1i-0.0652000      0     29.21     35.46     31.81    H 
 
 MM Charge=              0.0000 electrons
 MM Dipole moment (Debye):
    X=             25.5980    Y=              8.6670    Z=            -12.0563  Tot=             29.5927
 MM Quadrupole moment (Debye-Ang):
   XX=           1792.9147   YY=            636.9239   ZZ=           -853.5853
   XY=           1169.0520   XZ=            528.8594   YZ=            -99.3683
 MM Traceless Quadrupole moment (Debye-Ang):
   XX=           1267.4969   YY=            111.5061   ZZ=          -1379.0031
   XY=           1169.0520   XZ=            528.8594   YZ=            -99.3683
 MM Octapole moment (Debye-Ang**2):
  XXX=          94615.5598  YYY=          35069.0071  ZZZ=         -45382.9783  XYY=          51564.8022
  XXY=          71363.8473  XXZ=          51642.2341  XZZ=           5444.2084  YZZ=         -17842.1592
  YYZ=           8863.4116  XYZ=          28727.3036
 MM Hexadecapole moment (Debye-Ang**3):
 XXXX=        4459487.4156 YYYY=        1714960.3579 ZZZZ=       -2147199.4928 XXXY=        3583137.0775
 XXXZ=        2978341.9613 YYYX=        2216880.6323 YYYZ=         780462.9405 ZZZX=        -275921.9844
 ZZZY=       -1138699.4866 XXYY=        2838545.2197 XXZZ=        1415191.0404 YYZZ=        -166778.3267
 XXYZ=        2131598.8308 YYXZ=        1401002.1590 ZZXY=         573495.0353
                          Input orientation:                          
 ---------------------------------------------------------------------
 Center     Atomic      Atomic             Coordinates (Angstroms)
 Number     Number       Type             X           Y           Z
 ---------------------------------------------------------------------
      1         53    90000001       31.230000   33.920000   37.540000
      2          6    90000002       38.610000   37.040000   38.740000
      3          1    90000003       38.190000   36.410000   39.540000
      4          1    90000003       37.950000   37.740000   38.220000
      5          1    90000003       39.530000   37.440000   39.190000
      6          8    90000004       39.090000   36.250000   37.590000
      7          6    90000002       40.310000   35.470000   37.740000
      8          1    90000003       41.180000   36.100000   37.520000
      9          1    90000003       40.350000   34.890000   38.670000
     10          6    90000002       40.310000   34.510000   36.560000
     11          1    90000003       40.130000   35.100000   35.660000
     12          1    90000003       41.280000   34.030000   36.390000
     13          8    90000004       39.290000   33.530000   36.780000
     14          6    90000002       38.920000   32.630000   35.740000
     15          1    90000003       38.070000   32.070000   36.160000
     16          1    90000003       39.710000   31.970000   35.370000
     17          6    90000002       38.390000   33.460000   34.590000
     18          1    90000003       38.220000   32.790000   33.740000
     19          1    90000003       39.160000   34.080000   34.130000
     20          7    90000005       37.160000   34.200000   34.810000
     21          6    90000006       37.210000   35.600000   34.830000
     22          1    90000007       38.000000   36.320000   34.700000
     23          7    90000005       35.910000   35.920000   35.120000
     24          6    90000006       35.130000   34.780000   35.400000
     25          1    90000008       34.110000   34.840000   35.740000
     26          6    90000009       35.950000   33.680000   35.170000
     27          1    90000008       35.760000   32.630000   35.360000
     28          6    90000002       35.330000   37.250000   35.030000
     29          1    90000003       35.940000   37.890000   35.680000
     30          1    90000003       35.540000   37.630000   34.020000
     31          6    90000002       33.850000   37.440000   35.440000
     32          1    90000003       33.650000   37.060000   36.450000
     33          1    90000003       33.700000   38.520000   35.430000
     34          8    90000004       33.030000   36.950000   34.410000
     35          6    90000002       31.690000   37.320000   34.560000
     36          1    90000003       31.570000   38.390000   34.780000
     37          1    90000003       31.250000   36.700000   35.350000
     38          6    90000002       31.000000   37.160000   33.190000
     39          1    90000003       30.000000   37.600000   33.290000
     40          1    90000003       31.640000   37.680000   32.470000
     41          8    90000004       30.940000   35.790000   33.000000
     42          6    90000002       30.300000   35.370000   31.750000
     43          1    90000003       30.700000   34.360000   31.600000
     44          1    90000003       30.700000   36.020000   30.960000
     45          1    90000003       29.210000   35.460000   31.810000
 ---------------------------------------------------------------------
                    Distance matrix (angstroms):
                    1          2          3          4          5
     1  I    0.000000
     2  C    8.101778   0.000000
     3  H    7.657787   1.101499   0.000000
     4  H    7.759716   1.093618   1.889153   0.000000
     5  H    9.165310   1.099500   1.725978   1.878111   0.000000
     6  O    8.198232   1.475466   2.153625   1.979040   2.041984
     7  C    9.213517   2.520893   2.935643   3.309517   2.567450
     8  H   10.186035   2.996148   3.621685   3.689512   2.703146
     9  H    9.240790   2.766767   2.780809   3.752999   2.728608
    10  C    9.151770   3.747439   4.121262   4.331062   4.013751
    11  H    9.172611   3.944667   4.531457   4.274997   4.277441
    12  H   10.116180   4.659560   5.013482   5.310546   4.746641
    13  O    8.105140   4.077266   4.137874   4.646859   4.599326
    14  C    8.002512   5.342677   5.409371   5.762239   5.950689
    15  H    7.218899   5.625736   5.502218   6.033813   6.336355
    16  H    8.967820   6.186421   6.277969   6.671806   6.674257
    17  C    7.757558   5.485189   5.765848   5.629289   6.188699
    18  H    8.035982   6.573781   6.837053   6.681751   7.282932
    19  H    8.633574   5.506015   5.969749   5.620302   6.085236
    20  N    6.534233   5.060929   5.321457   4.978333   5.941288
    21  C    6.776939   4.395646   4.878586   4.076678   5.270446
    22  H    7.723892   4.148747   4.844564   3.795958   4.873951
    23  N    5.635495   4.652827   4.997489   4.133280   5.655060
    24  C    4.530916   5.326688   5.400009   4.966528   6.387464
    25  H    3.518636   5.838664   5.792348   5.413502   6.931010
    26  C    5.287050   5.577643   5.618487   5.457664   6.566156
    27  H    5.190125   6.244598   6.137239   6.252024   7.212344
    28  C    5.847991   4.956471   5.406043   4.156994   5.914533
    29  H    6.434641   4.149096   4.706644   3.242561   5.040903
    30  H    6.688094   5.661396   6.243501   4.843573   6.533384
    31  C    4.864648   5.805825   6.058589   4.962701   6.806240
    32  H    4.111460   5.463158   5.530118   4.699500   6.498184
    33  H    5.631430   6.103655   6.442383   5.143442   7.020890
    34  O    4.713576   7.063526   7.296170   6.272687   8.083223
    35  C    4.544447   8.089326   8.238841   7.263580   9.105872
    36  H    5.264418   8.189365   8.390614   7.277397   9.149437
    37  H    3.539054   8.110321   8.111954   7.362642   9.157052
    38  C    5.428904   9.419607   9.621907   8.598826  10.432608
    39  H    5.754807  10.205303  10.370858   9.355587  11.209661
    40  H    6.325393   9.396989   9.721126   8.537107  10.366682
    41  O    4.918597   9.661211   9.783583   8.954943  10.715722
    42  C    6.040819  10.986587  11.136328  10.295645  12.034592
    43  H    5.979808  10.987725  11.106133  10.383222  12.044227
    44  H    6.927287  11.141674  11.395991  10.403293  12.153938
    45  H    6.267767  11.784791  11.886791  11.075834  12.840841
                    6          7          8          9         10
     6  O    0.000000
     7  C    1.455782   0.000000
     8  H    2.096545   1.096449   0.000000
     9  H    2.145600   1.096768   1.864269   0.000000
    10  C    2.361546   1.521184   2.051000   2.144318   0.000000
    11  H    2.475682   2.120307   2.358410   3.025326   1.091100
    12  H    3.341332   2.199318   2.360466   2.608237   1.095536
    13  O    2.845083   2.392823   3.274844   2.558378   1.431503
    14  C    4.068882   3.741350   4.507427   3.967039   2.477680
    15  H    4.534060   4.367379   5.269023   4.410317   3.336345
    16  H    4.861193   4.269297   4.882653   4.452640   2.868397
    17  C    4.156212   4.201071   4.831004   4.746883   2.944452
    18  H    5.248905   5.248857   5.831475   5.766437   3.908823
    19  H    4.084777   4.035678   4.433159   4.762751   2.722554
    20  N    3.956741   4.485566   5.207159   5.054879   3.616780
    21  C    3.402132   4.253822   4.821514   5.010918   3.713624
    22  H    3.089515   3.911547   4.255961   4.829938   3.474450
    23  N    4.040074   5.140710   5.793557   5.777283   4.839597
    24  C    4.758004   5.725740   6.545174   6.160633   5.315158
    25  H    5.496453   6.544990   7.398709   6.893838   6.262691
    26  C    4.724500   5.368296   6.223488   5.751009   4.650871
    27  H    5.400574   5.867921   6.788439   6.093587   5.067238
    28  C    4.657381   5.942466   6.461045   6.634727   5.886332
    29  H    4.032394   5.403416   5.835006   6.114589   5.594256
    30  H    5.220326   6.423153   6.811791   7.229537   6.240104
    31  C    5.787590   7.134599   7.736336   7.693205   7.181288
    32  H    5.616876   6.967625   7.665990   7.384260   7.132335
    33  H    6.234629   7.637454   8.134796   8.239964   7.813392
    34  O    6.879390   8.141112   8.764536   8.716284   7.973362
    35  C    8.067577   9.372262  10.015493   9.889014   9.284422
    36  H    8.308195   9.678616  10.252014  10.221081   9.726788
    37  H    8.166131   9.450323  10.182033   9.854365   9.399138
    38  C    9.253983  10.499271  11.113276  11.072750  10.249659
    39  H   10.145965  11.429589  12.047211  11.975433  11.248871
    40  H    9.152147  10.383925  10.909193  11.049353  10.096826
    41  O    9.364945  10.505565  11.197504  11.023021  10.104895
    42  C   10.589811  11.665770  12.336945  12.211441  11.138932
    43  H   10.480663  11.457914  12.161595  11.974485  10.815554
    44  H   10.695882  11.773827  12.364077  12.403366  11.224625
    45  H   11.473748  12.584713  13.277598  13.095194  12.110945
                   11         12         13         14         15
    11  H    0.000000
    12  H    1.732137   0.000000
    13  O    2.103545   2.088588   0.000000
    14  C    2.751618   2.819947   1.424254   0.000000
    15  H    3.697905   3.768103   2.001100   1.101136   0.000000
    16  H    3.171340   2.783685   2.144318   1.093892   1.823102
    17  C    2.619561   3.452101   2.368755   1.514034   2.121179
    18  H    3.559579   4.233639   3.306675   2.124994   2.529288
    19  H    2.078990   3.099113   2.709594   2.179954   3.057630
    20  N    3.217670   4.415846   2.977700   2.535232   2.680951
    21  C    3.076573   4.632861   3.523322   3.545857   3.869031
    22  H    2.635697   4.342649   3.711415   3.942601   4.494330
    23  N    4.332713   5.832830   4.460056   4.502066   4.535383
    24  C    5.016971   6.274161   4.557686   4.370606   4.070049
    25  H    6.026143   7.244826   5.443354   5.293411   4.850866
    26  C    4.441723   5.479033   3.710822   3.201297   2.840176
    27  H    5.028698   5.787167   3.909898   3.182766   2.507927
    28  C    5.297112   6.900761   5.708108   5.893776   5.967990
    29  H    5.033945   6.627164   5.607326   6.045792   6.216084
    30  H    5.491685   7.178057   6.204039   6.275572   6.472565
    31  C    6.705401   8.230158   6.832079   6.995070   6.867583
    32  H    6.815871   8.209836   6.661787   6.921120   6.672376
    33  H    7.286577   8.862172   7.613849   7.876332   7.825107
    34  O    7.442782   8.972697   7.516708   7.424513   7.230387
    35  C    8.796136  10.302480   8.777955   8.698356   8.415872
    36  H    9.212605  10.765027   9.339058   9.387316   9.170431
    37  H    9.028317  10.431270   8.759874   8.691714   8.282838
    38  C    9.679948  11.212283   9.735969   9.473637   9.204015
    39  H   10.699710  12.230834  10.726094  10.500943  10.195229
    40  H    9.429348  11.028078   9.711905   9.444247   9.296940
    41  O    9.592070  11.022944   9.440260   9.009639   8.640654
    42  C   10.582528  11.995232  10.464540   9.885955   9.524232
    43  H   10.293498  11.618494  10.065257   9.364876   8.964073
    44  H   10.576450  12.057421  10.670548  10.094994   9.846796
    45  H   11.584408  12.988695  11.403166  10.850710  10.436197
                   16         17         18         19         20
    16  H    0.000000
    17  C    2.137966   0.000000
    18  H    2.355716   1.095582   0.000000
    19  H    2.508426   1.090367   1.643107   0.000000
    20  N    3.433511   1.452205   2.063153   2.115845   0.000000
    21  C    4.440552   2.455524   3.178726   2.569611   1.401035
    22  H    4.721811   2.888564   3.664819   2.586136   2.283002
    23  N    5.486802   3.533115   4.127639   3.863703   2.148721
    24  C    5.373397   3.609169   4.032840   4.282966   2.192122
    25  H    6.303475   4.641692   5.009451   5.354643   3.252230
    26  C    4.135420   2.517618   2.826641   3.397896   1.365320
    27  H    4.004772   2.863337   2.949847   3.895562   2.174258
    28  C    6.868653   4.890941   5.468802   5.052504   3.563678
    29  H    7.025340   5.178368   5.913713   5.223696   3.982637
    30  H    7.158701   5.082942   5.539531   5.071390   3.874713
    31  C    8.016570   6.097089   6.603741   6.418863   4.674463
    32  H    7.987371   6.235960   6.816297   6.680037   4.815527
    33  H    8.889668   6.950201   7.491288   7.156480   5.569416
    34  O    8.387157   6.398601   6.685103   6.774378   4.977891
    35  C    9.674658   7.732432   7.989631   8.153735   6.302206
    36  H   10.383838   8.417446   8.755804   8.752525   6.986065
    37  H    9.692518   7.877487   8.152368   8.421455   6.439697
    38  C   10.370757   8.382249   8.457411   8.772434   7.023646
    39  H   11.415227   9.445724   9.534516   9.848939   8.070688
    40  H   10.302378   8.238040   8.295866   8.500941   6.932272
    41  O    9.855060   7.966147   7.908603   8.471682   6.670277
    42  C   10.640136   8.784179   8.564047   9.264346   7.602112
    43  H   10.055103   8.299771   7.974641   8.834642   7.215352
    44  H   10.818073   8.880687   8.643593   9.240352   7.737345
    45  H   11.623412   9.798000   9.593430  10.309670   8.590116
                   21         22         23         24         25
    21  C    0.000000
    22  H    1.076754   0.000000
    23  N    1.369854   2.168986   0.000000
    24  C    2.307314   3.331441   1.409397   0.000000
    25  H    3.318991   4.290000   2.188790   1.076847   0.000000
    26  C    2.321551   3.375352   2.240915   1.391151   2.248577
    27  H    3.347282   4.366841   3.302151   2.240759   2.784062
    28  C    2.509362   2.846524   1.453754   2.505554   2.792955
    29  H    2.753089   2.769278   2.048268   3.225926   3.557387
    30  H    2.750618   2.868815   2.066640   3.192961   3.575947
    31  C    3.879085   4.361708   2.580000   2.952220   2.630133
    32  H    4.174877   4.746852   2.859388   2.913984   2.375731
    33  H    4.605052   4.884967   3.426398   4.004173   3.715723
    34  O    4.412630   5.018157   3.139968   3.177892   2.717977
    35  C    5.788065   6.390282   4.481294   4.357844   3.660492
    36  H    6.292551   6.755457   5.005207   5.107847   4.469418
    37  H    6.082927   6.791863   4.730423   4.329353   3.433846
    38  C    6.609637   7.210111   5.419465   5.254084   4.642952
    39  H    7.639090   8.223533   6.410881   6.222652   5.523785
    40  H    6.396945   6.875471   5.324754   5.401389   4.985920
    41  O    6.534363   7.281106   5.404831   4.933173   4.296394
    42  C    7.568844   8.300301   6.567458   6.082721   5.542301
    43  H    7.372286   8.169553   6.478279   5.851607   5.384988
    44  H    7.585077   8.207777   6.667811   6.393442   5.989065
    45  H    8.552193   9.292782   7.487169   6.956788   6.311838
                   26         27         28         29         30
    26  C    0.000000
    27  H    1.083836   0.000000
    28  C    3.626141   4.651688   0.000000
    29  H    4.240790   5.272798   1.097360   0.000000
    30  H    4.134380   5.181120   1.099363   1.727194   0.000000
    31  C    4.315148   5.175964   1.547450   2.151325   2.215536
    32  H    4.284017   5.026440   2.207918   2.554584   3.130799
    33  H    5.343753   6.240240   2.104709   2.340299   2.483103
    34  O    4.449371   5.197865   2.400916   3.311284   2.629563
    35  C    5.636426   6.261070   3.670885   4.431907   3.900026
    36  H    6.443648   7.146335   3.936966   4.489644   4.112919
    37  H    5.589526   6.074957   4.129322   4.849856   4.586709
    38  C    6.366577   6.920072   4.705592   5.580018   4.639116
    39  H    7.369077   7.884377   5.617740   6.409353   5.587969
    40  H    6.470402   7.129446   4.511607   5.370121   4.197023
    41  O    5.853298   6.227969   5.052188   6.049165   5.058261
    42  C    6.817258   7.095865   6.292353   7.321537   6.141506
    43  H    6.385123   6.537132   6.446231   7.520964   6.322571
    44  H    7.124760   7.513701   6.286072   7.296088   5.948218
    45  H    7.738579   7.969561   7.143312   8.134783   7.047120
                   31         32         33         34         35
    31  C    0.000000
    32  H    1.097497   0.000000
    33  H    1.090413   1.781713   0.000000
    34  O    1.404778   2.134971   1.988517   0.000000
    35  C    2.335466   2.735197   2.497399   1.398213   0.000000
    36  H    2.556658   2.980638   2.230762   2.083771   1.098954
    37  H    2.704755   2.664507   3.053080   2.028423   1.096403
    38  C    3.641895   4.202392   3.762605   2.377688   1.542271
    39  H    4.412550   4.857952   4.372185   3.295118   2.132463
    40  H    3.709798   4.501655   3.702810   2.495716   2.121367
    41  O    4.140556   4.567220   4.579891   2.775212   2.310195
    42  C    5.522997   6.014034   5.918184   4.126124   3.691978
    43  H    5.844185   6.286096   6.401133   4.475835   4.301546
    44  H    5.657676   6.318560   5.935562   4.265712   3.953492
    45  H    6.215054   6.618399   6.529020   4.855152   4.143972
                   36         37         38         39         40
    36  H    0.000000
    37  H    1.812015   0.000000
    38  C    2.089474   2.222544   0.000000
    39  H    2.304148   2.572178   1.097087   0.000000
    40  H    2.417664   3.067067   1.094715   1.835320   0.000000
    41  O    3.213300   2.539035   1.384413   2.060049   2.083987
    42  C    4.462533   3.953657   2.401604   2.726628   2.765881
    43  H    5.206746   4.454279   3.233899   3.720712   3.558497
    44  H    4.578886   4.476271   2.522400   2.900914   2.432961
    45  H    4.793266   4.269754   2.828162   2.719209   3.356918
                   41         42         43         44         45
    41  O    0.000000
    42  C    1.465776   0.000000
    43  H    2.015564   1.096631   0.000000
    44  H    2.066906   1.098453   1.779101   0.000000
    45  H    2.125535   1.095354   1.863921   1.804494   0.000000
 Stoichiometry    C13H25IN2O4
 Framework group  C1[X(C13H25IN2O4)]
 Deg. of freedom   129
 Full point group                 C1      NOp   1
 Largest Abelian subgroup         C1      NOp   1
 Largest concise Abelian subgroup C1      NOp   1
                         Standard orientation:                         
 ---------------------------------------------------------------------
 Center     Atomic      Atomic             Coordinates (Angstroms)
 Number     Number       Type             X           Y           Z
 ---------------------------------------------------------------------
      1         53    90000001        3.087923    2.541473   -0.039751
      2          6    90000002       -4.245746    0.833270    2.949921
      3          1    90000003       -3.981330    1.896115    2.832681
      4          1    90000003       -3.483902    0.138413    3.314294
      5          1    90000003       -5.205582    0.869145    3.485016
      6          8    90000004       -4.577573    0.187146    1.665626
      7          6    90000002       -5.838961    0.523007    1.021112
      8          1    90000003       -6.636610   -0.117921    1.415025
      9          1    90000003       -6.046424    1.599636    0.994098
     10          6    90000002       -5.699739    0.011932   -0.404868
     11          1    90000003       -5.358236   -1.022799   -0.348226
     12          1    90000003       -6.652153   -0.037347   -0.944014
     13          8    90000004       -4.769263    0.854038   -1.093543
     14          6    90000002       -4.283645    0.488039   -2.381456
     15          1    90000003       -3.533378    1.259675   -2.614215
     16          1    90000003       -5.035521    0.388672   -3.169751
     17          6    90000002       -3.547805   -0.826605   -2.231295
     18          1    90000003       -3.278756   -1.179505   -3.232980
     19          1    90000003       -4.210344   -1.650317   -1.964013
     20          7    90000005       -2.335060   -0.827181   -1.432451
     21          6    90000006       -2.326477   -1.530193   -0.220592
     22          1    90000007       -3.055038   -2.128348    0.299801
     23          7    90000005       -1.073674   -1.247017    0.255637
     24          6    90000006       -0.396304   -0.309677   -0.549947
     25          1    90000008        0.561082    0.104973   -0.283343
     26          6    90000009       -1.218452   -0.071237   -1.646541
     27          1    90000008       -1.105797    0.653160   -2.444825
     28          6    90000002       -0.429329   -1.910498    1.377249
     29          1    90000003       -1.103363   -1.779546    2.233245
     30          1    90000003       -0.465106   -2.991666    1.181297
     31          6    90000002        0.977092   -1.431805    1.810183
     32          1    90000003        1.002997   -0.352178    2.005723
     33          1    90000003        1.173772   -1.966605    2.739863
     34          8    90000004        1.923282   -1.928570    0.898400
     35          6    90000002        3.239234   -1.783249    1.348013
     36          1    90000003        3.370571   -2.122773    2.384919
     37          1    90000003        3.525364   -0.730879    1.235105
     38          6    90000002        4.123639   -2.755918    0.541575
     39          1    90000003        5.114667   -2.740957    1.011937
     40          1    90000003        3.624971   -3.728944    0.595898
     41          8    90000004        4.152320   -2.210620   -0.730599
     42          6    90000002        4.957621   -2.957080   -1.701572
     43          1    90000003        4.541743   -2.631940   -2.662784
     44          1    90000003        4.712287   -4.018547   -1.561224
     45          1    90000003        6.028382   -2.784067   -1.548799
 ---------------------------------------------------------------------
 Rotational constants (GHZ):           0.2466211           0.0917285           0.0802877
 General basis read from cards:  (5D, 7F)
 ======================================================================================================
                                       Pseudopotential Parameters
 ======================================================================================================
  Center     Atomic      Valence      Angular      Power
  Number     Number     Electrons     Momentum     of R      Exponent        Coefficient   SO-Coeffient
 ======================================================================================================
    1         53           25
                                      G and up 
                                                     2        1.0000000        0.00000000    0.00000000
                                      S - G
                                                     2       40.0158350       49.99429300    0.00000000
                                                     2       17.4297470      281.02531700    0.00000000
                                                     2        9.0054840       61.57332600    0.00000000
                                      P - G
                                                     2       15.3554660       67.44284100 -134.88568300
                                                     2       14.9718330      134.88113700  134.88113700
                                                     2        8.9601640       14.67505100  -29.35010100
                                                     2        8.2590960       29.37566600   29.37566600
                                      D - G
                                                     2       15.0689080       35.43952900  -35.43952900
                                                     2       14.5553220       53.17605700   35.45070400
                                                     2        6.7186470        9.06719500   -9.06719500
                                                     2        6.4563930       13.20693700    8.80462400
                                                     2        1.1917790        0.08933500   -0.08933500
                                                     2        1.2911570        0.05238000    0.03492000
                                      F - G
                                                     2       19.4586090      -21.84204000   14.56136000
                                                     2       19.3492600      -28.46819100  -14.23409500
                                                     2        4.8237670       -0.24371300    0.16247500
                                                     2        4.8843150       -0.32080400   -0.16040200
    2          6
                                   No pseudopotential on this center.
    3          1
                                   No pseudopotential on this center.
    4          1
                                   No pseudopotential on this center.
    5          1
                                   No pseudopotential on this center.
    6          8
                                   No pseudopotential on this center.
    7          6
                                   No pseudopotential on this center.
    8          1
                                   No pseudopotential on this center.
    9          1
                                   No pseudopotential on this center.
   10          6
                                   No pseudopotential on this center.
   11          1
                                   No pseudopotential on this center.
   12          1
                                   No pseudopotential on this center.
   13          8
                                   No pseudopotential on this center.
   14          6
                                   No pseudopotential on this center.
   15          1
                                   No pseudopotential on this center.
   16          1
                                   No pseudopotential on this center.
   17          6
                                   No pseudopotential on this center.
   18          1
                                   No pseudopotential on this center.
   19          1
                                   No pseudopotential on this center.
   20          7
                                   No pseudopotential on this center.
   21          6
                                   No pseudopotential on this center.
   22          1
                                   No pseudopotential on this center.
   23          7
                                   No pseudopotential on this center.
   24          6
                                   No pseudopotential on this center.
   25          1
                                   No pseudopotential on this center.
   26          6
                                   No pseudopotential on this center.
   27          1
                                   No pseudopotential on this center.
   28          6
                                   No pseudopotential on this center.
   29          1
                                   No pseudopotential on this center.
   30          1
                                   No pseudopotential on this center.
   31          6
                                   No pseudopotential on this center.
   32          1
                                   No pseudopotential on this center.
   33          1
                                   No pseudopotential on this center.
   34          8
                                   No pseudopotential on this center.
   35          6
                                   No pseudopotential on this center.
   36          1
                                   No pseudopotential on this center.
   37          1
                                   No pseudopotential on this center.
   38          6
                                   No pseudopotential on this center.
   39          1
                                   No pseudopotential on this center.
   40          1
                                   No pseudopotential on this center.
   41          8
                                   No pseudopotential on this center.
   42          6
                                   No pseudopotential on this center.
   43          1
                                   No pseudopotential on this center.
   44          1
                                   No pseudopotential on this center.
   45          1
                                   No pseudopotential on this center.
 ======================================================================================================
 There are   363 symmetry adapted cartesian basis functions of A   symmetry.
 There are   342 symmetry adapted basis functions of A   symmetry.
   342 basis functions,   699 primitive gaussians,   363 cartesian basis functions
    87 alpha electrons       87 beta electrons
       nuclear repulsion energy      1825.9747044013 Hartrees.
 NAtoms=   45 NActive=   45 NUniq=   45 SFac= 1.00D+00 NAtFMM=   60 NAOKFM=F Big=F
 Integral buffers will be    131072 words long.
 Raffenetti 1 integral format.
 Two-electron integral symmetry is turned on.
 One-electron integrals computed using PRISM.
   1 Symmetry operations used in ECPInt.
 ECPInt:  NShTT=    9316 NPrTT=   55727 LenC2=    7613 LenP2D=   25429.
 LDataN:  DoStor=T MaxTD1= 6 Len=  172
 NBasis=   342 RedAO= T EigKep=  1.52D-03  NBF=   342
 NBsUse=   342 1.00D-06 EigRej= -1.00D+00 NBFU=   342
 ExpMin= 1.11D-01 ExpMax= 5.48D+03 ExpMxC= 8.25D+02 IAcc=3 IRadAn=         5 AccDes= 0.00D+00
 Harris functional with IExCor=  205 and IRadAn=       5 diagonalized for initial guess.
 HarFok:  IExCor=  205 AccDes= 0.00D+00 IRadAn=         5 IDoV= 1 UseB2=F ITyADJ=14
 ICtDFT=  3500011 ScaDFX=  1.000000  1.000000  1.000000  1.000000
 Defaulting to unpruned grid for atomic number  53.
 FoFCou: FMM=F IPFlag=           0 FMFlag=      100000 FMFlg1=           0
         NFxFlg=           0 DoJE=T BraDBF=F KetDBF=T FulRan=T
         wScrn=  0.000000 ICntrl=       500 IOpCl=  0 I1Cent=   200000004 NGrid=           0
         NMat0=    1 NMatS0=      1 NMatT0=    0 NMatD0=    1 NMtDS0=    0 NMtDT0=    0
 Petite list used in FoFCou.
 Requested convergence on RMS density matrix=1.00D-08 within 128 cycles.
 Requested convergence on MAX density matrix=1.00D-06.
 Requested convergence on             energy=1.00D-06.
 No special actions if energy rises.
 Integral accuracy reduced to 1.0D-05 until final iterations.
 Initial convergence to 1.0D-05 achieved.  Increase integral accuracy.
 SCF Done:  E(RHF) =  -1211.66177927     A.U. after   14 cycles
            NFock= 14  Conv=0.69D-08     -V/T= 2.1794
 SCF density gives NOpUse=  1 NOpAll=  1.

 **********************************************************************

            Population analysis using the SCF density.

 **********************************************************************

 Orbital symmetries:
 BldTbl:  Degeneracy threshold= 1.00D-02
       Occupied  (A) (A) (A) (A) (A) (A) (A) (A) (A) (A) (A) (A)
                 (A) (A) (A) (A) (A) (A) (A) (A) (A) (A) (A) (A)
                 (A) (A) (A) (A) (A) (A) (A) (A) (A) (A) (A) (A)
                 (A) (A) (A) (A) (A) (A) (A) (A) (A) (A) (A) (A)
                 (A) (A) (A) (A) (A) (A) (A) (A) (A) (A) (A) (A)
                 (A) (A) (A) (A) (A) (A) (A) (A) (A) (A) (A) (A)
                 (A) (A) (A) (A) (A) (A) (A) (A) (A) (A) (A) (A)
                 (A) (A) (A)
       Virtual   (A) (A) (A) (A) (A) (A) (A) (A) (A) (A) (A) (A)
                 (A) (A) (A) (A) (A) (A) (A) (A) (A) (A) (A) (A)
                 (A) (A) (A) (A) (A) (A) (A) (A) (A) (A) (A) (A)
                 (A) (A) (A) (A) (A) (A) (A) (A) (A) (A) (A) (A)
                 (A) (A) (A) (A) (A) (A) (A) (A) (A) (A) (A) (A)
                 (A) (A) (A) (A) (A) (A) (A) (A) (A) (A) (A) (A)
                 (A) (A) (A) (A) (A) (A) (A) (A) (A) (A) (A) (A)
                 (A) (A) (A) (A) (A) (A) (A) (A) (A) (A) (A) (A)
                 (A) (A) (A) (A) (A) (A) (A) (A) (A) (A) (A) (A)
                 (A) (A) (A) (A) (A) (A) (A) (A) (A) (A) (A) (A)
                 (A) (A) (A) (A) (A) (A) (A) (A) (A) (A) (A) (A)
                 (A) (A) (A) (A) (A) (A) (A) (A) (A) (A) (A) (A)
                 (A) (A) (A) (A) (A) (A) (A) (A) (A) (A) (A) (A)
                 (A) (A) (A) (A) (A) (A) (A) (A) (A) (A) (A) (A)
                 (A) (A) (A) (A) (A) (A) (A) (A) (A) (A) (A) (A)
                 (A) (A) (A) (A) (A) (A) (A) (A) (A) (A) (A) (A)
                 (A) (A) (A) (A) (A) (A) (A) (A) (A) (A) (A) (A)
                 (A) (A) (A) (A) (A) (A) (A) (A) (A) (A) (A) (A)
                 (A) (A) (A) (A) (A) (A) (A) (A) (A) (A) (A) (A)
                 (A) (A) (A) (A) (A) (A) (A) (A) (A) (A) (A) (A)
                 (A) (A) (A) (A) (A) (A) (A) (A) (A) (A) (A) (A)
                 (A) (A) (A)
 The electronic state is 1-A.
 Alpha  occ. eigenvalues --  -20.60035 -20.58601 -20.56413 -20.53330 -15.72219
 Alpha  occ. eigenvalues --  -15.71397 -11.41550 -11.33696 -11.33625 -11.33362
 Alpha  occ. eigenvalues --  -11.32903 -11.32363 -11.31924 -11.31457 -11.30840
 Alpha  occ. eigenvalues --  -11.30520 -11.25792 -11.25667 -11.25363  -7.53101
 Alpha  occ. eigenvalues --   -5.37988  -5.37927  -5.37900  -2.07346  -2.07332
 Alpha  occ. eigenvalues --   -2.07304  -2.07241  -2.07239  -1.43825  -1.41166
 Alpha  occ. eigenvalues --   -1.39258  -1.36870  -1.34287  -1.30564  -1.12613
 Alpha  occ. eigenvalues --   -1.09091  -1.07228  -1.04174  -0.99823  -0.95627
 Alpha  occ. eigenvalues --   -0.93059  -0.92474  -0.89270  -0.88081  -0.85696
 Alpha  occ. eigenvalues --   -0.84426  -0.81224  -0.79854  -0.74017  -0.72410
 Alpha  occ. eigenvalues --   -0.71681  -0.71055  -0.70367  -0.68963  -0.68277
 Alpha  occ. eigenvalues --   -0.68020  -0.67664  -0.66517  -0.66281  -0.65798
 Alpha  occ. eigenvalues --   -0.64523  -0.64052  -0.62975  -0.62220  -0.61672
 Alpha  occ. eigenvalues --   -0.60291  -0.59772  -0.58458  -0.57887  -0.57027
 Alpha  occ. eigenvalues --   -0.55490  -0.55224  -0.53335  -0.51669  -0.50935
 Alpha  occ. eigenvalues --   -0.49896  -0.48033  -0.47566  -0.45943  -0.44985
 Alpha  occ. eigenvalues --   -0.43962  -0.42368  -0.40370  -0.38682  -0.20062
 Alpha  occ. eigenvalues --   -0.19828  -0.19669
 Alpha virt. eigenvalues --    0.06296   0.13443   0.16165   0.17186   0.19580
 Alpha virt. eigenvalues --    0.20231   0.21224   0.23027   0.23692   0.24279
 Alpha virt. eigenvalues --    0.24600   0.24925   0.25862   0.26435   0.26913
 Alpha virt. eigenvalues --    0.27173   0.27343   0.28369   0.29076   0.29347
 Alpha virt. eigenvalues --    0.29644   0.30500   0.31061   0.31184   0.31755
 Alpha virt. eigenvalues --    0.32240   0.32675   0.32978   0.33728   0.34502
 Alpha virt. eigenvalues --    0.34875   0.35806   0.36276   0.36866   0.37665
 Alpha virt. eigenvalues --    0.38115   0.38483   0.39076   0.41407   0.42249
 Alpha virt. eigenvalues --    0.43101   0.45027   0.45271   0.46203   0.48134
 Alpha virt. eigenvalues --    0.58909   0.61527   0.61856   0.64308   0.65737
 Alpha virt. eigenvalues --    0.67879   0.68438   0.68700   0.70846   0.71928
 Alpha virt. eigenvalues --    0.72132   0.72697   0.73146   0.73494   0.74229
 Alpha virt. eigenvalues --    0.74539   0.74883   0.75295   0.75768   0.76752
 Alpha virt. eigenvalues --    0.77347   0.77593   0.77885   0.78907   0.79401
 Alpha virt. eigenvalues --    0.79625   0.79663   0.79764   0.80225   0.80851
 Alpha virt. eigenvalues --    0.81128   0.82823   0.83649   0.85779   0.87083
 Alpha virt. eigenvalues --    0.88109   0.88908   0.90516   0.90788   0.91479
 Alpha virt. eigenvalues --    0.92706   0.94571   0.94981   0.97617   0.98201
 Alpha virt. eigenvalues --    0.99206   1.01600   1.02190   1.02535   1.04965
 Alpha virt. eigenvalues --    1.05093   1.06916   1.07212   1.08004   1.08581
 Alpha virt. eigenvalues --    1.09207   1.09454   1.10465   1.10935   1.11201
 Alpha virt. eigenvalues --    1.11700   1.13236   1.13530   1.13732   1.14501
 Alpha virt. eigenvalues --    1.15590   1.16170   1.16251   1.16579   1.16969
 Alpha virt. eigenvalues --    1.17371   1.18272   1.18405   1.19922   1.20785
 Alpha virt. eigenvalues --    1.21310   1.22343   1.22688   1.24091   1.27535
 Alpha virt. eigenvalues --    1.27609   1.29100   1.30223   1.33216   1.34856
 Alpha virt. eigenvalues --    1.36314   1.37724   1.38317   1.39202   1.39630
 Alpha virt. eigenvalues --    1.41494   1.42076   1.44147   1.45429   1.48412
 Alpha virt. eigenvalues --    1.52360   1.53231   1.53626   1.56640   1.57232
 Alpha virt. eigenvalues --    1.57861   1.59722   1.61773   1.63932   1.65314
 Alpha virt. eigenvalues --    1.66202   1.68023   1.69977   1.71477   1.74078
 Alpha virt. eigenvalues --    1.75974   1.77178   1.79334   1.80368   1.80418
 Alpha virt. eigenvalues --    1.83273   1.83409   1.87815   1.90950   1.93106
 Alpha virt. eigenvalues --    1.95451   1.98381   1.98748   2.02717   2.04548
 Alpha virt. eigenvalues --    2.07195   2.08359   2.09644   2.12565   2.13351
 Alpha virt. eigenvalues --    2.14686   2.16113   2.17165   2.17773   2.19532
 Alpha virt. eigenvalues --    2.19665   2.20553   2.21819   2.23342   2.26183
 Alpha virt. eigenvalues --    2.26701   2.26993   2.28796   2.30008   2.31013
 Alpha virt. eigenvalues --    2.32355   2.33709   2.36534   2.37488   2.37910
 Alpha virt. eigenvalues --    2.38722   2.39272   2.41360   2.41817   2.42319
 Alpha virt. eigenvalues --    2.43001   2.44333   2.46625   2.47602   2.48113
 Alpha virt. eigenvalues --    2.48774   2.49779   2.51042   2.51833   2.53522
 Alpha virt. eigenvalues --    2.53968   2.55944   2.57568   2.58852   2.59766
 Alpha virt. eigenvalues --    2.60589   2.62454   2.62657   2.64565   2.66124
 Alpha virt. eigenvalues --    2.67261   2.72172   2.73381   2.75777   2.77086
 Alpha virt. eigenvalues --    2.77970   2.78907   2.81653   2.82602   2.84629
 Alpha virt. eigenvalues --    2.86869   2.89265   2.91349   2.94158   2.96354
 Alpha virt. eigenvalues --    2.99242   3.01897   3.03379   3.07577   3.13131
 Alpha virt. eigenvalues --    3.14686   3.19450   3.20008   3.21936   3.25281
 Alpha virt. eigenvalues --    3.27941   3.29205   3.30161   3.37669   3.41463
 Alpha virt. eigenvalues --    3.44222  19.33686  19.36799  19.44885  56.58562
          Condensed to atoms (all electrons):
               1          2          3          4          5          6
     1  I   25.933337  -0.000000   0.000000   0.000000   0.000000  -0.000000
     2  C   -0.000000   4.821657   0.383174   0.398875   0.388988   0.185728
     3  H    0.000000   0.383174   0.528916  -0.021585  -0.048822  -0.029977
     4  H    0.000000   0.398875  -0.021585   0.495777  -0.019010  -0.039457
     5  H    0.000000   0.388988  -0.048822  -0.019010   0.564256  -0.040814
     6  O   -0.000000   0.185728  -0.029977  -0.039457  -0.040814   8.549136
     7  C   -0.000000  -0.035581  -0.001099   0.003655  -0.005857   0.207473
     8  H   -0.000000  -0.001072  -0.000425   0.000022   0.003341  -0.038051
     9  H   -0.000000  -0.002992   0.003081  -0.000103  -0.000453  -0.032002
    10  C   -0.000000   0.004054  -0.000060  -0.000167  -0.000278  -0.055057
    11  H    0.000000  -0.000178   0.000022  -0.000016   0.000003  -0.001251
    12  H    0.000000  -0.000076   0.000002   0.000002   0.000011   0.002674
    13  O    0.000000  -0.000074   0.000028   0.000001   0.000003   0.003357
    14  C    0.000000   0.000002  -0.000001  -0.000000   0.000000  -0.000026
    15  H   -0.000000   0.000000  -0.000000   0.000000   0.000000   0.000006
    16  H    0.000000  -0.000000   0.000000  -0.000000  -0.000000   0.000002
    17  C    0.000000  -0.000000  -0.000000  -0.000000   0.000000   0.000011
    18  H    0.000000   0.000000  -0.000000   0.000000  -0.000000  -0.000000
    19  H   -0.000000   0.000001  -0.000000   0.000000  -0.000000  -0.000038
    20  N    0.000005   0.000012   0.000000   0.000002  -0.000000  -0.000497
    21  C   -0.000002  -0.000041  -0.000005   0.000022   0.000005   0.001693
    22  H    0.000000  -0.000094   0.000007  -0.000044   0.000004   0.002732
    23  N    0.000080   0.000053  -0.000001   0.000029  -0.000000  -0.000404
    24  C   -0.008621   0.000000   0.000000  -0.000003   0.000000   0.000016
    25  H    0.024907   0.000000  -0.000000  -0.000000   0.000000   0.000000
    26  C   -0.000216  -0.000003   0.000000  -0.000001   0.000000   0.000029
    27  H    0.000051  -0.000000  -0.000000  -0.000000   0.000000   0.000000
    28  C    0.000025  -0.000034   0.000000   0.000026   0.000000  -0.000009
    29  H   -0.000000   0.000014  -0.000001   0.000310  -0.000000   0.000035
    30  H   -0.000001   0.000000  -0.000000   0.000000   0.000000   0.000000
    31  C   -0.001539  -0.000000  -0.000000  -0.000002   0.000000   0.000000
    32  H    0.003905   0.000000   0.000000   0.000002   0.000000   0.000000
    33  H    0.000017   0.000000   0.000000  -0.000000  -0.000000  -0.000000
    34  O    0.000105  -0.000000   0.000000   0.000000   0.000000   0.000000
    35  C   -0.005017   0.000000  -0.000000  -0.000000   0.000000   0.000000
    36  H    0.000101   0.000000   0.000000  -0.000000   0.000000   0.000000
    37  H    0.012311  -0.000000  -0.000000   0.000000   0.000000  -0.000000
    38  C    0.000078  -0.000000  -0.000000   0.000000   0.000000   0.000000
    39  H   -0.000001   0.000000   0.000000  -0.000000  -0.000000   0.000000
    40  H   -0.000004  -0.000000  -0.000000   0.000000   0.000000  -0.000000
    41  O    0.000001   0.000000  -0.000000  -0.000000  -0.000000  -0.000000
    42  C    0.000007  -0.000000  -0.000000   0.000000  -0.000000  -0.000000
    43  H    0.000002   0.000000  -0.000000  -0.000000  -0.000000   0.000000
    44  H   -0.000000   0.000000  -0.000000  -0.000000   0.000000   0.000000
    45  H    0.000000   0.000000   0.000000  -0.000000   0.000000   0.000000
               7          8          9         10         11         12
     1  I   -0.000000  -0.000000  -0.000000  -0.000000   0.000000   0.000000
     2  C   -0.035581  -0.001072  -0.002992   0.004054  -0.000178  -0.000076
     3  H   -0.001099  -0.000425   0.003081  -0.000060   0.000022   0.000002
     4  H    0.003655   0.000022  -0.000103  -0.000167  -0.000016   0.000002
     5  H   -0.005857   0.003341  -0.000453  -0.000278   0.000003   0.000011
     6  O    0.207473  -0.038051  -0.032002  -0.055057  -0.001251   0.002674
     7  C    4.782763   0.390572   0.385488   0.369026  -0.039518  -0.037953
     8  H    0.390572   0.571598  -0.027626  -0.058725  -0.002494   0.002515
     9  H    0.385488  -0.027626   0.518055  -0.037281   0.005570  -0.001321
    10  C    0.369026  -0.058725  -0.037281   4.839587   0.376694   0.392758
    11  H   -0.039518  -0.002494   0.005570   0.376694   0.630500  -0.051381
    12  H   -0.037953   0.002515  -0.001321   0.392758  -0.051381   0.564489
    13  O   -0.047714   0.002979   0.000541   0.201376  -0.041267  -0.036440
    14  C    0.003687  -0.000113  -0.000182  -0.040434  -0.004725  -0.002129
    15  H   -0.000043   0.000002  -0.000015   0.003713  -0.000233  -0.000143
    16  H   -0.000273   0.000006  -0.000001  -0.002675  -0.000564   0.004072
    17  C    0.000269   0.000014   0.000012  -0.011504   0.000007  -0.000560
    18  H   -0.000004  -0.000000  -0.000000   0.000386  -0.000164   0.000040
    19  H    0.000144   0.000013  -0.000008  -0.001025  -0.001855  -0.000081
    20  N   -0.000050  -0.000003  -0.000002   0.000229   0.000403   0.000059
    21  C   -0.000151   0.000009  -0.000003  -0.000250  -0.000699   0.000038
    22  H   -0.000156   0.000005   0.000010  -0.000160   0.000637   0.000012
    23  N    0.000020  -0.000000  -0.000000  -0.000009   0.000022  -0.000000
    24  C    0.000001   0.000000   0.000000   0.000003  -0.000001  -0.000000
    25  H   -0.000000   0.000000  -0.000000   0.000000  -0.000000  -0.000000
    26  C   -0.000004   0.000000   0.000000  -0.000054  -0.000033   0.000002
    27  H   -0.000000   0.000000   0.000000  -0.000001  -0.000000   0.000000
    28  C    0.000000   0.000000  -0.000000   0.000000  -0.000001   0.000000
    29  H   -0.000001   0.000000   0.000000   0.000000   0.000000   0.000000
    30  H    0.000000   0.000000   0.000000  -0.000000   0.000000   0.000000
    31  C   -0.000000   0.000000  -0.000000  -0.000000  -0.000000   0.000000
    32  H    0.000000   0.000000   0.000000  -0.000000  -0.000000   0.000000
    33  H    0.000000  -0.000000  -0.000000  -0.000000  -0.000000  -0.000000
    34  O    0.000000   0.000000   0.000000   0.000000  -0.000000  -0.000000
    35  C   -0.000000   0.000000  -0.000000  -0.000000  -0.000000   0.000000
    36  H    0.000000   0.000000   0.000000  -0.000000  -0.000000  -0.000000
    37  H    0.000000  -0.000000  -0.000000   0.000000   0.000000  -0.000000
    38  C   -0.000000   0.000000   0.000000   0.000000  -0.000000   0.000000
    39  H   -0.000000  -0.000000   0.000000  -0.000000   0.000000   0.000000
    40  H    0.000000  -0.000000  -0.000000  -0.000000  -0.000000  -0.000000
    41  O    0.000000  -0.000000  -0.000000  -0.000000   0.000000  -0.000000
    42  C    0.000000  -0.000000  -0.000000   0.000000   0.000000  -0.000000
    43  H   -0.000000   0.000000  -0.000000  -0.000000   0.000000   0.000000
    44  H   -0.000000   0.000000   0.000000  -0.000000  -0.000000   0.000000
    45  H   -0.000000   0.000000   0.000000  -0.000000   0.000000   0.000000
              13         14         15         16         17         18
     1  I    0.000000   0.000000  -0.000000   0.000000   0.000000   0.000000
     2  C   -0.000074   0.000002   0.000000  -0.000000  -0.000000   0.000000
     3  H    0.000028  -0.000001  -0.000000   0.000000  -0.000000  -0.000000
     4  H    0.000001  -0.000000   0.000000  -0.000000  -0.000000   0.000000
     5  H    0.000003   0.000000   0.000000  -0.000000   0.000000  -0.000000
     6  O    0.003357  -0.000026   0.000006   0.000002   0.000011  -0.000000
     7  C   -0.047714   0.003687  -0.000043  -0.000273   0.000269  -0.000004
     8  H    0.002979  -0.000113   0.000002   0.000006   0.000014  -0.000000
     9  H    0.000541  -0.000182  -0.000015  -0.000001   0.000012  -0.000000
    10  C    0.201376  -0.040434   0.003713  -0.002675  -0.011504   0.000386
    11  H   -0.041267  -0.004725  -0.000233  -0.000564   0.000007  -0.000164
    12  H   -0.036440  -0.002129  -0.000143   0.004072  -0.000560   0.000040
    13  O    8.494561   0.218598  -0.036578  -0.030085  -0.065677   0.003552
    14  C    0.218598   4.796450   0.411169   0.392194   0.313131  -0.044171
    15  H   -0.036578   0.411169   0.487360  -0.024266  -0.046363  -0.001083
    16  H   -0.030085   0.392194  -0.024266   0.529573  -0.055015   0.002392
    17  C   -0.065677   0.313131  -0.046363  -0.055015   5.133813   0.398369
    18  H    0.003552  -0.044171  -0.001083   0.002392   0.398369   0.507866
    19  H   -0.003873  -0.026286   0.003323  -0.002254   0.404078  -0.039176
    20  N    0.002597  -0.051987  -0.003504   0.003820   0.185557  -0.043405
    21  C    0.002457  -0.001031   0.000035   0.000018  -0.035916   0.001124
    22  H    0.000108   0.000036  -0.000001   0.000005  -0.000380  -0.000046
    23  N   -0.000079  -0.000109  -0.000013   0.000000   0.003197  -0.000084
    24  C   -0.000071   0.000343   0.000143  -0.000005   0.002653  -0.000019
    25  H   -0.000000   0.000001   0.000002  -0.000000  -0.000034  -0.000000
    26  C    0.000477  -0.000814   0.001894   0.000016  -0.029034  -0.001597
    27  H    0.000044  -0.000384   0.000002   0.000012   0.000268   0.000473
    28  C   -0.000000   0.000001  -0.000000  -0.000000  -0.000037   0.000002
    29  H   -0.000000  -0.000000   0.000000   0.000000  -0.000002   0.000000
    30  H   -0.000000   0.000000  -0.000000  -0.000000   0.000000  -0.000001
    31  C    0.000000  -0.000000   0.000000   0.000000   0.000001  -0.000000
    32  H    0.000000   0.000000  -0.000000  -0.000000  -0.000000  -0.000000
    33  H   -0.000000   0.000000   0.000000  -0.000000  -0.000000   0.000000
    34  O    0.000000   0.000000  -0.000000  -0.000000   0.000000   0.000000
    35  C    0.000000  -0.000000   0.000000   0.000000   0.000000   0.000000
    36  H    0.000000   0.000000  -0.000000  -0.000000   0.000000  -0.000000
    37  H   -0.000000  -0.000000  -0.000000   0.000000  -0.000000   0.000000
    38  C    0.000000   0.000000  -0.000000  -0.000000   0.000000  -0.000000
    39  H    0.000000  -0.000000  -0.000000   0.000000  -0.000000   0.000000
    40  H   -0.000000   0.000000  -0.000000  -0.000000  -0.000000   0.000000
    41  O   -0.000000   0.000000  -0.000000   0.000000  -0.000000   0.000000
    42  C   -0.000000   0.000000   0.000000  -0.000000   0.000000   0.000000
    43  H    0.000000  -0.000000  -0.000000   0.000000   0.000000  -0.000000
    44  H    0.000000  -0.000000   0.000000   0.000000   0.000000  -0.000000
    45  H    0.000000  -0.000000  -0.000000   0.000000  -0.000000   0.000000
              19         20         21         22         23         24
     1  I   -0.000000   0.000005  -0.000002   0.000000   0.000080  -0.008621
     2  C    0.000001   0.000012  -0.000041  -0.000094   0.000053   0.000000
     3  H   -0.000000   0.000000  -0.000005   0.000007  -0.000001   0.000000
     4  H    0.000000   0.000002   0.000022  -0.000044   0.000029  -0.000003
     5  H   -0.000000  -0.000000   0.000005   0.000004  -0.000000   0.000000
     6  O   -0.000038  -0.000497   0.001693   0.002732  -0.000404   0.000016
     7  C    0.000144  -0.000050  -0.000151  -0.000156   0.000020   0.000001
     8  H    0.000013  -0.000003   0.000009   0.000005  -0.000000   0.000000
     9  H   -0.000008  -0.000002  -0.000003   0.000010  -0.000000   0.000000
    10  C   -0.001025   0.000229  -0.000250  -0.000160  -0.000009   0.000003
    11  H   -0.001855   0.000403  -0.000699   0.000637   0.000022  -0.000001
    12  H   -0.000081   0.000059   0.000038   0.000012  -0.000000  -0.000000
    13  O   -0.003873   0.002597   0.002457   0.000108  -0.000079  -0.000071
    14  C   -0.026286  -0.051987  -0.001031   0.000036  -0.000109   0.000343
    15  H    0.003323  -0.003504   0.000035  -0.000001  -0.000013   0.000143
    16  H   -0.002254   0.003820   0.000018   0.000005   0.000000  -0.000005
    17  C    0.404078   0.185557  -0.035916  -0.000380   0.003197   0.002653
    18  H   -0.039176  -0.043405   0.001124  -0.000046  -0.000084  -0.000019
    19  H    0.489832  -0.035873  -0.003113   0.000312   0.000177  -0.000042
    20  N   -0.035873   7.018246   0.428165  -0.022468  -0.101543  -0.057436
    21  C   -0.003113   0.428165   4.586637   0.375744   0.424128  -0.088523
    22  H    0.000312  -0.022468   0.375744   0.354187  -0.027584   0.001409
    23  N    0.000177  -0.101543   0.424128  -0.027584   7.067191   0.329720
    24  C   -0.000042  -0.057436  -0.088523   0.001409   0.329720   4.820609
    25  H    0.000001   0.001894   0.001891  -0.000008  -0.020016   0.321413
    26  C    0.001682   0.316504  -0.081633   0.001137  -0.054174   0.666051
    27  H   -0.000051  -0.030509   0.002316  -0.000010   0.002021  -0.011906
    28  C   -0.000005   0.002283  -0.034249   0.001337   0.142019  -0.031058
    29  H    0.000000   0.000066  -0.003270   0.000630  -0.050033   0.001863
    30  H   -0.000000   0.000111  -0.003602   0.000306  -0.047661   0.000063
    31  C    0.000000  -0.000107   0.001800  -0.000050  -0.025518  -0.002347
    32  H   -0.000000  -0.000005  -0.000119   0.000002  -0.002631  -0.000994
    33  H    0.000000   0.000001  -0.000047   0.000002   0.003428   0.000363
    34  O   -0.000000   0.000003  -0.000042   0.000001   0.000471   0.000268
    35  C    0.000000  -0.000000   0.000001  -0.000000  -0.000057   0.000031
    36  H   -0.000000   0.000000  -0.000000   0.000000  -0.000003  -0.000003
    37  H   -0.000000   0.000000  -0.000000   0.000000  -0.000000  -0.000062
    38  C   -0.000000   0.000000   0.000000   0.000000   0.000004  -0.000006
    39  H   -0.000000  -0.000000  -0.000000  -0.000000  -0.000000  -0.000000
    40  H    0.000000   0.000000  -0.000000  -0.000000  -0.000001   0.000001
    41  O   -0.000000  -0.000000   0.000000  -0.000000  -0.000000  -0.000004
    42  C    0.000000   0.000000   0.000000   0.000000   0.000000   0.000000
    43  H   -0.000000   0.000000  -0.000000  -0.000000  -0.000000   0.000000
    44  H    0.000000  -0.000000   0.000000   0.000000  -0.000000  -0.000000
    45  H   -0.000000  -0.000000  -0.000000  -0.000000  -0.000000  -0.000000
              25         26         27         28         29         30
     1  I    0.024907  -0.000216   0.000051   0.000025  -0.000000  -0.000001
     2  C    0.000000  -0.000003  -0.000000  -0.000034   0.000014   0.000000
     3  H   -0.000000   0.000000  -0.000000   0.000000  -0.000001  -0.000000
     4  H   -0.000000  -0.000001  -0.000000   0.000026   0.000310   0.000000
     5  H    0.000000   0.000000   0.000000   0.000000  -0.000000   0.000000
     6  O    0.000000   0.000029   0.000000  -0.000009   0.000035   0.000000
     7  C   -0.000000  -0.000004  -0.000000   0.000000  -0.000001   0.000000
     8  H    0.000000   0.000000   0.000000   0.000000   0.000000   0.000000
     9  H   -0.000000   0.000000   0.000000  -0.000000   0.000000   0.000000
    10  C    0.000000  -0.000054  -0.000001   0.000000   0.000000  -0.000000
    11  H   -0.000000  -0.000033  -0.000000  -0.000001   0.000000   0.000000
    12  H   -0.000000   0.000002   0.000000   0.000000   0.000000   0.000000
    13  O   -0.000000   0.000477   0.000044  -0.000000  -0.000000  -0.000000
    14  C    0.000001  -0.000814  -0.000384   0.000001  -0.000000   0.000000
    15  H    0.000002   0.001894   0.000002  -0.000000   0.000000  -0.000000
    16  H   -0.000000   0.000016   0.000012  -0.000000   0.000000  -0.000000
    17  C   -0.000034  -0.029034   0.000268  -0.000037  -0.000002   0.000000
    18  H   -0.000000  -0.001597   0.000473   0.000002   0.000000  -0.000001
    19  H    0.000001   0.001682  -0.000051  -0.000005   0.000000  -0.000000
    20  N    0.001894   0.316504  -0.030509   0.002283   0.000066   0.000111
    21  C    0.001891  -0.081633   0.002316  -0.034249  -0.003270  -0.003602
    22  H   -0.000008   0.001137  -0.000010   0.001337   0.000630   0.000306
    23  N   -0.020016  -0.054174   0.002021   0.142019  -0.050033  -0.047661
    24  C    0.321413   0.666051  -0.011906  -0.031058   0.001863   0.000063
    25  H    0.314178  -0.014226   0.000449  -0.002541   0.000025  -0.000142
    26  C   -0.014226   4.799689   0.371948   0.002790  -0.000174   0.000005
    27  H    0.000449   0.371948   0.363045  -0.000046   0.000001   0.000002
    28  C   -0.002541   0.002790  -0.000046   5.041701   0.398624   0.397587
    29  H    0.000025  -0.000174   0.000001   0.398624   0.524252  -0.036733
    30  H   -0.000142   0.000005   0.000002   0.397587  -0.036733   0.488683
    31  C   -0.004485   0.000085   0.000002   0.348007  -0.033854  -0.020694
    32  H   -0.000974  -0.000073   0.000001  -0.040014   0.000393   0.003174
    33  H    0.000376  -0.000002  -0.000000  -0.039010  -0.001625  -0.003065
    34  O    0.004569  -0.000085  -0.000002  -0.056127   0.002561   0.001807
    35  C   -0.000274   0.000001   0.000000   0.005030  -0.000107  -0.000051
    36  H    0.000041  -0.000000  -0.000000   0.000209   0.000003  -0.000009
    37  H    0.000099  -0.000002  -0.000000  -0.000164   0.000006   0.000015
    38  C   -0.000007  -0.000000   0.000000  -0.000172   0.000002  -0.000034
    39  H   -0.000000  -0.000000  -0.000000   0.000001  -0.000000   0.000001
    40  H   -0.000001  -0.000000   0.000000  -0.000021   0.000001   0.000034
    41  O    0.000021  -0.000000  -0.000000   0.000003  -0.000000   0.000000
    42  C   -0.000000  -0.000000   0.000000  -0.000000   0.000000  -0.000000
    43  H    0.000000   0.000000  -0.000000   0.000000  -0.000000   0.000000
    44  H    0.000000   0.000000  -0.000000   0.000000  -0.000000   0.000000
    45  H    0.000000  -0.000000  -0.000000  -0.000000  -0.000000   0.000000
              31         32         33         34         35         36
     1  I   -0.001539   0.003905   0.000017   0.000105  -0.005017   0.000101
     2  C   -0.000000   0.000000   0.000000  -0.000000   0.000000   0.000000
     3  H   -0.000000   0.000000   0.000000   0.000000  -0.000000   0.000000
     4  H   -0.000002   0.000002  -0.000000   0.000000  -0.000000  -0.000000
     5  H    0.000000   0.000000  -0.000000   0.000000   0.000000   0.000000
     6  O    0.000000   0.000000  -0.000000   0.000000   0.000000   0.000000
     7  C   -0.000000   0.000000   0.000000   0.000000  -0.000000   0.000000
     8  H    0.000000   0.000000  -0.000000   0.000000   0.000000   0.000000
     9  H   -0.000000   0.000000  -0.000000   0.000000  -0.000000   0.000000
    10  C   -0.000000  -0.000000  -0.000000   0.000000  -0.000000  -0.000000
    11  H   -0.000000  -0.000000  -0.000000  -0.000000  -0.000000  -0.000000
    12  H    0.000000   0.000000  -0.000000  -0.000000   0.000000  -0.000000
    13  O    0.000000   0.000000  -0.000000   0.000000   0.000000   0.000000
    14  C   -0.000000   0.000000   0.000000   0.000000  -0.000000   0.000000
    15  H    0.000000  -0.000000   0.000000  -0.000000   0.000000  -0.000000
    16  H    0.000000  -0.000000  -0.000000  -0.000000   0.000000  -0.000000
    17  C    0.000001  -0.000000  -0.000000   0.000000   0.000000   0.000000
    18  H   -0.000000  -0.000000   0.000000   0.000000   0.000000  -0.000000
    19  H    0.000000  -0.000000   0.000000  -0.000000   0.000000  -0.000000
    20  N   -0.000107  -0.000005   0.000001   0.000003  -0.000000   0.000000
    21  C    0.001800  -0.000119  -0.000047  -0.000042   0.000001  -0.000000
    22  H   -0.000050   0.000002   0.000002   0.000001  -0.000000   0.000000
    23  N   -0.025518  -0.002631   0.003428   0.000471  -0.000057  -0.000003
    24  C   -0.002347  -0.000994   0.000363   0.000268   0.000031  -0.000003
    25  H   -0.004485  -0.000974   0.000376   0.004569  -0.000274   0.000041
    26  C    0.000085  -0.000073  -0.000002  -0.000085   0.000001  -0.000000
    27  H    0.000002   0.000001  -0.000000  -0.000002   0.000000  -0.000000
    28  C    0.348007  -0.040014  -0.039010  -0.056127   0.005030   0.000209
    29  H   -0.033854   0.000393  -0.001625   0.002561  -0.000107   0.000003
    30  H   -0.020694   0.003174  -0.003065   0.001807  -0.000051  -0.000009
    31  C    4.801860   0.383160   0.402015   0.213047  -0.052537  -0.009438
    32  H    0.383160   0.499994  -0.036543  -0.032800   0.000082  -0.001039
    33  H    0.402015  -0.036543   0.549018  -0.047266  -0.006715   0.007985
    34  O    0.213047  -0.032800  -0.047266   8.510726   0.179290  -0.039256
    35  C   -0.052537   0.000082  -0.006715   0.179290   4.907327   0.376921
    36  H   -0.009438  -0.001039   0.007985  -0.039256   0.376921   0.626464
    37  H   -0.003305   0.004176  -0.000649  -0.036556   0.387150  -0.030326
    38  C    0.005384  -0.000210   0.000044  -0.050581   0.374669  -0.056132
    39  H   -0.000075   0.000010  -0.000021   0.002782  -0.047033   0.000809
    40  H   -0.000478   0.000031  -0.000026   0.001683  -0.043359  -0.000053
    41  O   -0.000044   0.000001  -0.000003   0.003857  -0.065202   0.003730
    42  C    0.000006  -0.000000   0.000000  -0.000129   0.006354  -0.000180
    43  H   -0.000001   0.000000   0.000000   0.000011  -0.000178   0.000003
    44  H   -0.000000  -0.000000   0.000000  -0.000015  -0.000139   0.000018
    45  H    0.000000   0.000000  -0.000000   0.000003  -0.000302   0.000006
              37         38         39         40         41         42
     1  I    0.012311   0.000078  -0.000001  -0.000004   0.000001   0.000007
     2  C   -0.000000  -0.000000   0.000000  -0.000000   0.000000  -0.000000
     3  H   -0.000000  -0.000000   0.000000  -0.000000  -0.000000  -0.000000
     4  H    0.000000   0.000000  -0.000000   0.000000  -0.000000   0.000000
     5  H    0.000000   0.000000  -0.000000   0.000000  -0.000000  -0.000000
     6  O   -0.000000   0.000000   0.000000  -0.000000  -0.000000  -0.000000
     7  C    0.000000  -0.000000  -0.000000   0.000000   0.000000   0.000000
     8  H   -0.000000   0.000000  -0.000000  -0.000000  -0.000000  -0.000000
     9  H   -0.000000   0.000000   0.000000  -0.000000  -0.000000  -0.000000
    10  C    0.000000   0.000000  -0.000000  -0.000000  -0.000000   0.000000
    11  H    0.000000  -0.000000   0.000000  -0.000000   0.000000   0.000000
    12  H   -0.000000   0.000000   0.000000  -0.000000  -0.000000  -0.000000
    13  O   -0.000000   0.000000   0.000000  -0.000000  -0.000000  -0.000000
    14  C   -0.000000   0.000000  -0.000000   0.000000   0.000000   0.000000
    15  H   -0.000000  -0.000000  -0.000000  -0.000000  -0.000000   0.000000
    16  H    0.000000  -0.000000   0.000000  -0.000000   0.000000  -0.000000
    17  C   -0.000000   0.000000  -0.000000  -0.000000  -0.000000   0.000000
    18  H    0.000000  -0.000000   0.000000   0.000000   0.000000   0.000000
    19  H   -0.000000  -0.000000  -0.000000   0.000000  -0.000000   0.000000
    20  N    0.000000   0.000000  -0.000000   0.000000  -0.000000   0.000000
    21  C   -0.000000   0.000000  -0.000000  -0.000000   0.000000   0.000000
    22  H    0.000000   0.000000  -0.000000  -0.000000  -0.000000   0.000000
    23  N   -0.000000   0.000004  -0.000000  -0.000001  -0.000000   0.000000
    24  C   -0.000062  -0.000006  -0.000000   0.000001  -0.000004   0.000000
    25  H    0.000099  -0.000007  -0.000000  -0.000001   0.000021  -0.000000
    26  C   -0.000002  -0.000000  -0.000000  -0.000000  -0.000000  -0.000000
    27  H   -0.000000   0.000000  -0.000000   0.000000  -0.000000   0.000000
    28  C   -0.000164  -0.000172   0.000001  -0.000021   0.000003  -0.000000
    29  H    0.000006   0.000002  -0.000000   0.000001  -0.000000   0.000000
    30  H    0.000015  -0.000034   0.000001   0.000034   0.000000  -0.000000
    31  C   -0.003305   0.005384  -0.000075  -0.000478  -0.000044   0.000006
    32  H    0.004176  -0.000210   0.000010   0.000031   0.000001  -0.000000
    33  H   -0.000649   0.000044  -0.000021  -0.000026  -0.000003   0.000000
    34  O   -0.036556  -0.050581   0.002782   0.001683   0.003857  -0.000129
    35  C    0.387150   0.374669  -0.047033  -0.043359  -0.065202   0.006354
    36  H   -0.030326  -0.056132   0.000809  -0.000053   0.003730  -0.000180
    37  H    0.436134  -0.023782  -0.000708   0.003849   0.000423  -0.000138
    38  C   -0.023782   4.783504   0.392732   0.377208   0.216769  -0.049004
    39  H   -0.000708   0.392732   0.589237  -0.039118  -0.041238  -0.003812
    40  H    0.003849   0.377208  -0.039118   0.607007  -0.040448  -0.006331
    41  O    0.000423   0.216769  -0.041238  -0.040448   8.462609   0.210026
    42  C   -0.000138  -0.049004  -0.003812  -0.006331   0.210026   4.824549
    43  H    0.000006   0.004390  -0.000162   0.000098  -0.034449   0.398674
    44  H    0.000016  -0.008149  -0.001000   0.006892  -0.038925   0.382419
    45  H   -0.000015  -0.001546   0.004601  -0.000674  -0.034706   0.384753
              43         44         45
     1  I    0.000002  -0.000000   0.000000
     2  C    0.000000   0.000000   0.000000
     3  H   -0.000000  -0.000000   0.000000
     4  H   -0.000000  -0.000000  -0.000000
     5  H   -0.000000   0.000000   0.000000
     6  O    0.000000   0.000000   0.000000
     7  C   -0.000000  -0.000000  -0.000000
     8  H    0.000000   0.000000   0.000000
     9  H   -0.000000   0.000000   0.000000
    10  C   -0.000000  -0.000000  -0.000000
    11  H    0.000000  -0.000000   0.000000
    12  H    0.000000   0.000000   0.000000
    13  O    0.000000   0.000000   0.000000
    14  C   -0.000000  -0.000000  -0.000000
    15  H   -0.000000   0.000000  -0.000000
    16  H    0.000000   0.000000   0.000000
    17  C    0.000000   0.000000  -0.000000
    18  H   -0.000000  -0.000000   0.000000
    19  H   -0.000000   0.000000  -0.000000
    20  N    0.000000  -0.000000  -0.000000
    21  C   -0.000000   0.000000  -0.000000
    22  H   -0.000000   0.000000  -0.000000
    23  N   -0.000000  -0.000000  -0.000000
    24  C    0.000000  -0.000000  -0.000000
    25  H    0.000000   0.000000   0.000000
    26  C    0.000000   0.000000  -0.000000
    27  H   -0.000000  -0.000000  -0.000000
    28  C    0.000000   0.000000  -0.000000
    29  H   -0.000000  -0.000000  -0.000000
    30  H    0.000000   0.000000   0.000000
    31  C   -0.000001  -0.000000   0.000000
    32  H    0.000000  -0.000000   0.000000
    33  H    0.000000   0.000000  -0.000000
    34  O    0.000011  -0.000015   0.000003
    35  C   -0.000178  -0.000139  -0.000302
    36  H    0.000003   0.000018   0.000006
    37  H    0.000006   0.000016  -0.000015
    38  C    0.004390  -0.008149  -0.001546
    39  H   -0.000162  -0.001000   0.004601
    40  H    0.000098   0.006892  -0.000674
    41  O   -0.034449  -0.038925  -0.034706
    42  C    0.398674   0.382419   0.384753
    43  H    0.499601  -0.031437  -0.023048
    44  H   -0.031437   0.595679  -0.040198
    45  H   -0.023048  -0.040198   0.542987
 Mulliken charges:
               1
     1  I   -0.959531
     2  C   -0.142415
     3  H    0.186746
     4  H    0.181665
     5  H    0.158624
     6  O   -0.715310
     7  C    0.025306
     8  H    0.157434
     9  H    0.189231
    10  C    0.019856
    11  H    0.130522
    12  H    0.163411
    13  O   -0.668818
    14  C    0.036781
    15  H    0.204593
    16  H    0.183028
    17  C   -0.196858
    18  H    0.215545
    19  H    0.214115
    20  N   -0.612567
    21  C    0.426613
    22  H    0.312378
    23  N   -0.642641
    24  C    0.056148
    25  H    0.372841
    26  C    0.019813
    27  H    0.302273
    28  C   -0.136158
    29  H    0.197013
    30  H    0.220203
    31  C   -0.000894
    32  H    0.220470
    33  H    0.171721
    34  O   -0.658324
    35  C   -0.015886
    36  H    0.120151
    37  H    0.251520
    38  C    0.034841
    39  H    0.142995
    40  H    0.133710
    41  O   -0.642422
    42  C   -0.147193
    43  H    0.186490
    44  H    0.134840
    45  H    0.168138
 Sum of Mulliken charges =  -0.00000
 Mulliken charges with hydrogens summed into heavy atoms:
               1
     1  I   -0.959531
     2  C    0.384620
     6  O   -0.715310
     7  C    0.371971
    10  C    0.313790
    13  O   -0.668818
    14  C    0.424401
    17  C    0.232803
    20  N   -0.612567
    21  C    0.738991
    23  N   -0.642641
    24  C    0.428989
    26  C    0.322085
    28  C    0.281057
    31  C    0.391297
    34  O   -0.658324
    35  C    0.355785
    38  C    0.311547
    41  O   -0.642422
    42  C    0.342276
 DipInt: DoE/N= T F RetVal/Mat= T F Init=T NMatP=  1 IDeriv=0 Min/MaxMlt=  0  4
 Entering OneElI...
 OneElI was handed  3220886805 working-precision words.
 Multipole integrals L=0 to 4 MinM= 0 MaxM= 0.
 Requested accuracy = 0.1000D-12
 PrtBox:  NBox=     1 Levels=  1 BoxLen=   43.96 SMaxX=       23.96
          Shift=           12.570748            7.593953            6.109448
 Box      1 Number                   0 centers from      1 to    136:
 ShPair: Thresh= 1.00D-13 NBox=     1 BxSize= 4.40D+01 RnKept= 2.20D+01
         NSMCal=                 9316 NSMKep=                6578
 PrmmSu-InSpLW:  IPartL=    0 NPrtUS=    1 NPrtUL=    1 DoSpLW=F IThBeg=    0 IThEnd=    0 NThAct=    1.
 PrsmSu:  NPrtUS=   1 ThrOK=F IAlg=1 NPAlg=1 LenDen=           0 ISkipM=0 DoSpLW=F IThBeg=    0 IThEnd=    0.
 Prism:   IPart=     0 DynPar=F LinDyn=F Incr=          65.
 PRISM was handed  3220352318 working-precision words and  6578 shell-pairs
 IPart=  0 NShTot=        6578 NBatch=          84 AvBLen=        78.3
 PrsmSu-ThDecC:  IPartSL=    0    0 NPrtUSL=    1    1 IThBeg=    0 IThEnd=    0 CPU=   -1 GPU=   -1 NThAct=    1.
 PrSmSu:  NxtVal=             66.
 Electronic moments (au):
       -174.00000000        155.15079511        128.41116871         -2.14787271
      -8267.97223109      -1983.34252303      -1414.05302123        759.81632623
         -5.59861319        -10.41356603      22907.44235097       2464.89872495
       -430.42532038      -8702.09337392       4327.64681667       1160.72176339
       4968.22713732       1154.09377400         49.37552097        132.13199624
    -650595.75762856     -48810.79190995     -29469.33211009      90032.52772792
      31541.85767777      17719.18194955      -1890.65832888       4319.13563460
      -2607.02529291     -91019.38740007     -73527.63866452     -10945.24985416
     -17463.66639380       6057.37502488      12606.64872892
 Electronic spatial extent (au):  <R**2>=          11665.3678
 DipInt: DoE/N= F T RetVal/Mat= T F Init=T NMatP=  1 IDeriv=0 Min/MaxMlt=  0  4
 Nuclear    moments (au):
        174.00000000       -163.38923029       -134.47526492          2.10331263
       8172.51711098       1862.77141352       1325.13908336       -784.70750103
         12.27352258         10.10155441     -23177.83934601      -2498.74547609
        411.52703389       8629.50465207      -4541.78510931      -1186.11965455
      -4995.05241614      -1124.29701895        -38.47221205       -152.49344835
     624427.70244820      40519.84099495      24957.97843487     -90865.65488375
     -31593.76447047     -17836.29244889       1898.72950721      -4274.17577918
       2618.95528836      84545.31195256      68527.26983501       8899.84879916
      17860.88365222      -6199.08391952     -12618.85378333
 Total      moments (au):
          0.00000000         -8.23843518         -6.06409621         -0.04456008
        -95.45512011       -120.57110951        -88.91393787        -24.89117480
          6.67490939         -0.31201162       -270.39699503        -33.84675114
        -18.89828650        -72.58872185       -214.13829264        -25.39789116
        -26.82527882         29.79675505         10.90330892        -20.36145210
     -26168.05518036      -8290.95091500      -4511.35367522       -833.12715583
        -51.90679270       -117.11049934          8.07117833         44.95985542
         11.92999545      -6474.07544751      -5000.36882951      -2045.40105500
        397.21725842       -141.70889463        -12.20505441
 Traceless Quadrup. (au):
          6.19160239        -18.92438701         12.73278463        -24.89117480
          6.67490939         -0.31201162
 Charge=              0.0000 electrons
 Dipole moment (field-independent basis, Debye):
    X=            -20.9400    Y=            -15.4134    Z=             -0.1133  Tot=             26.0013
 Quadrupole moment (field-independent basis, Debye-Ang):
   XX=           -128.3904   YY=           -162.1723   ZZ=           -119.5923
   XY=            -33.4795   XZ=              8.9780   YZ=             -0.4197
 Traceless Quadrupole moment (field-independent basis, Debye-Ang):
   XX=              8.3279   YY=            -25.4539   ZZ=             17.1260
   XY=            -33.4795   XZ=              8.9780   YZ=             -0.4197
 Octapole moment (field-independent basis, Debye-Ang**2):
  XXX=           -192.4582  YYY=            -24.0908  ZZZ=            -13.4511  XYY=            -51.6659
  XXY=           -152.4154  XXZ=            -18.0772  XZZ=            -19.0932  YZZ=             21.2082
  YYZ=              7.7606  XYZ=            -14.4925
 Hexadecapole moment (field-independent basis, Debye-Ang**3):
 XXXX=          -9856.1444 YYYY=          -3122.7697 ZZZZ=          -1699.1921 XXXY=           -313.7956
 XXXZ=            -19.5506 YYYX=            -44.1094 YYYZ=              3.0400 ZZZX=             16.9340
 ZZZY=              4.4934 XXYY=          -2438.4473 XXZZ=          -1883.3787 YYZZ=           -770.3961
 XXYZ=            149.6111 YYXZ=            -53.3744 ZZXY=             -4.5970
 N-N= 1.825974704401D+03 E-N=-6.426609046031D+03  KE= 1.027355828407D+03
 Entering OneElI...
 OneElI was handed  3220966164 working-precision words.
 Calculate electrostatic properties
    NBasis =   342  MinDer = 0  MaxDer = 0
    NGrid  =    45  NMatD  =   1
 Requested accuracy = 0.1000D-12
 PrtBox:  NBox=     1 Levels=  1 BoxLen=   36.64 SMaxX=       23.96
          Shift=           12.570748            7.593953            6.109448
 Box      1 Number                   0 centers from      1 to    136:
 ShPair: Thresh= 1.00D-13 NBox=     1 BxSize= 3.66D+01 RnKept= 1.91D+01
         NSMCal=                 9316 NSMKep=                5457
 PrmmSu-InSpLW:  IPartL=    0 NPrtUS=   24 NPrtUL=    1 DoSpLW=F IThBeg=    0 IThEnd=   23 NThAct=   24.
 PrsmSu:  NPrtUS=  24 ThrOK=T IAlg=1 NPAlg=1 LenDen=           0 ISkipM=0 DoSpLW=F IThBeg=    0 IThEnd=   23.
 Prism:   IPart=     0 DynPar=F LinDyn=F Incr=         102.
 PRISM was handed   134046297 working-precision words and  5457 shell-pairs
 PRISM was handed   134046297 working-precision words and  5457 shell-pairs
 PRISM was handed   134046297 working-precision words and  5457 shell-pairs
 PRISM was handed   134046297 working-precision words and  5457 shell-pairs
 PRISM was handed   134046297 working-precision words and  5457 shell-pairs
 PRISM was handed   134046297 working-precision words and  5457 shell-pairs
 PRISM was handed   134046297 working-precision words and  5457 shell-pairs
 PRISM was handed   134046297 working-precision words and  5457 shell-pairs
 PRISM was handed   134046297 working-precision words and  5457 shell-pairs
 PRISM was handed   134046297 working-precision words and  5457 shell-pairs
 PRISM was handed   134046297 working-precision words and  5457 shell-pairs
 PRISM was handed   134046297 working-precision words and  5457 shell-pairs
 PRISM was handed   134046297 working-precision words and  5457 shell-pairs
[...]
 **** Fit      -0.009042
 **** Fit      -0.011366
 **** Fit      -0.012610
 **** Fit      -0.012149
 **** Fit      -0.009523
 **** Fit      -0.004728
 **** Fit       0.015273
 **** Fit       0.012639
 **** Fit       0.010354
 **** Fit       0.008291
 **** Fit       0.006302
 **** Fit       0.004247
 **** Fit       0.002010
 **** Fit      -0.000493
 **** Fit      -0.004275
 **** Fit      -0.007550
 **** Fit      -0.010962
 **** Fit      -0.014212
 **** Fit      -0.016854
 **** Fit      -0.018296
 **** Fit      -0.017865
 **** Fit       0.015919
 **** Fit       0.013199
 **** Fit       0.010985
 **** Fit       0.009063
 **** Fit       0.007259
 **** Fit       0.005435
 **** Fit       0.003472
 **** Fit       0.001252
 **** Fit      -0.001319
 **** Fit      -0.004945
 **** Fit      -0.008500
 **** Fit      -0.012360
 **** Fit      -0.016311
 **** Fit       0.015874
 **** Fit       0.013363
 **** Fit       0.011370
 **** Fit       0.009660
 **** Fit       0.008070
 **** Fit       0.006489
 **** Fit       0.004822
 **** Fit       0.002965
 **** Fit       0.000788
 **** Fit      -0.001832
 **** Fit       0.017092
 **** Fit       0.014421
 **** Fit       0.012438
 **** Fit       0.010812
 **** Fit       0.009338
 **** Fit       0.007904
 **** Fit       0.014812
 **** Fit       0.013083
 **** Fit       0.007391
 **** Fit       0.005772
 **** Fit       0.011125
 **** Fit       0.009615
 **** Fit       0.008073
 **** Fit       0.006569
 **** Fit       0.005161
 **** Fit       0.007861
 **** Fit       0.006382
 **** Fit       0.005011
 **** Fit       0.003779
 **** Fit       0.006195
 **** Fit       0.004857
 **** Fit       0.003666
 **** Fit       0.004985
 **** Fit       0.003774
 **** Fit       0.002716
 **** Fit       0.003973
 **** Fit       0.002907
 **** Fit       0.003405
 **** Fit       0.002434
 **** Fit       0.001558
 **** Fit       0.003422
 **** Fit       0.002467
 **** Fit       0.001582
 **** Fit      -0.040721
 **** Fit       0.003673
 **** Fit       0.002727
 **** Fit       0.001822
 **** Fit       0.000962
 **** Fit      -0.000873
 **** Fit      -0.002778
 **** Fit      -0.004750
 **** Fit       0.004088
 **** Fit       0.001799
 **** Fit      -0.000488
 **** Fit      -0.004283
 **** Fit      -0.006531
 **** Fit      -0.008554
 **** Fit      -0.009772
 **** Fit       0.003644
 **** Fit       0.001768
 **** Fit      -0.000111
 **** Fit      -0.002113
 **** Fit      -0.005506
 **** Fit      -0.007934
 **** Fit      -0.010477
 **** Fit      -0.012845
 **** Fit      -0.014530
 **** Fit       0.003549
 **** Fit       0.001934
 **** Fit       0.000329
 **** Fit      -0.001390
 **** Fit      -0.003318
 **** Fit      -0.006518
 **** Fit      -0.009115
 **** Fit      -0.012007
 **** Fit      -0.015049
 **** Fit      -0.017935
 **** Fit       0.002215
 **** Fit       0.000817
 **** Fit      -0.000664
 **** Fit      -0.002329
 **** Fit      -0.004262
 **** Fit      -0.007364
 **** Fit      -0.010044
 **** Fit      -0.013121
 **** Fit      -0.016543
 **** Fit      -0.020159
 **** Fit      -0.023656
 **** Fit       0.002338
 **** Fit       0.001140
 **** Fit      -0.000115
 **** Fit      -0.001518
 **** Fit      -0.003148
 **** Fit      -0.005078
 **** Fit      -0.008056
 **** Fit      -0.010940
 **** Fit      -0.014328
 **** Fit      -0.018215
 **** Fit      -0.022525
 **** Fit      -0.027053
 **** Fit      -0.031344
 **** Fit       0.001707
 **** Fit       0.000611
 **** Fit      -0.000591
 **** Fit      -0.001981
 **** Fit      -0.003639
 **** Fit      -0.005640
 **** Fit      -0.008572
 **** Fit      -0.011602
 **** Fit      -0.015213
 **** Fit      -0.019435
 **** Fit      -0.024256
 **** Fit      -0.029570
 **** Fit      -0.035090
 **** Fit       0.001203
 **** Fit       0.000185
 **** Fit      -0.000974
 **** Fit      -0.002349
 **** Fit      -0.004020
 **** Fit      -0.006068
 **** Fit      -0.008844
 **** Fit      -0.012064
 **** Fit      -0.015958
 **** Fit      -0.020580
 **** Fit      -0.025953
 **** Fit      -0.032038
 **** Fit      -0.038650
 **** Fit       0.001012
 **** Fit       0.000042
 **** Fit      -0.001084
 **** Fit      -0.002442
 **** Fit      -0.004124
 **** Fit      -0.006226
 **** Fit      -0.008721
 **** Fit      -0.012303
 **** Fit      -0.016742
 **** Fit      -0.022107
 **** Fit      -0.028440
 **** Fit      -0.035730
 **** Fit       0.000345
 **** Fit      -0.000737
 **** Fit      -0.002054
 **** Fit      -0.003728
 **** Fit      -0.005904
 **** Fit      -0.031409
 **** Fit       0.013335
 **** Fit       0.012028
 **** Fit       0.010632
 **** Fit       0.009269
 **** Fit       0.013717
 **** Fit       0.012548
 **** Fit       0.011244
 **** Fit       0.009900
 **** Fit       0.008579
 **** Fit       0.007345
 **** Fit       0.014174
 **** Fit       0.013279
 **** Fit       0.012129
 **** Fit       0.010873
 **** Fit       0.009579
 **** Fit       0.008285
 **** Fit       0.007024
 **** Fit       0.014047
 **** Fit       0.013592
 **** Fit       0.012705
 **** Fit       0.011628
 **** Fit       0.010467
 **** Fit       0.009270
 **** Fit       0.008057
 **** Fit       0.006847
 **** Fit       0.005663
 **** Fit       0.013264
 **** Fit       0.013251
 **** Fit       0.012609
 **** Fit       0.011689
 **** Fit       0.010643
 **** Fit       0.009534
 **** Fit       0.008389
 **** Fit       0.007222
 **** Fit       0.006045
 **** Fit       0.004879
 **** Fit       0.011808
 **** Fit       0.012372
 **** Fit       0.012096
 **** Fit       0.011433
 **** Fit       0.010582
 **** Fit       0.009634
 **** Fit       0.008627
 **** Fit       0.007582
 **** Fit       0.006507
 **** Fit       0.005413
 **** Fit       0.004317
 **** Fit       0.010503
 **** Fit       0.011063
 **** Fit       0.010910
 **** Fit       0.010401
 **** Fit       0.009704
 **** Fit       0.008902
 **** Fit       0.008035
 **** Fit       0.007121
 **** Fit       0.006171
 **** Fit       0.005191
 **** Fit       0.007469
 **** Fit       0.009090
 **** Fit       0.009584
 **** Fit       0.009496
 **** Fit       0.009097
 **** Fit       0.008527
 **** Fit       0.007859
 **** Fit       0.007130
 **** Fit       0.006356
 **** Fit       0.005539
 **** Fit       0.005166
 **** Fit       0.007133
 **** Fit       0.007945
 **** Fit       0.008131
 **** Fit       0.007978
 **** Fit       0.007646
 **** Fit       0.007226
 **** Fit      -0.001386
 **** Fit       0.002805
 **** Fit       0.005083
 **** Fit       0.006240
 **** Fit       0.006770
 **** Fit       0.006972
 **** Fit      -0.003206
 **** Fit       0.001036
 **** Fit       0.003505
 **** Fit       0.004946
 **** Fit      -0.004805
 **** Fit      -0.000430
 **** Fit      -0.047854
 **** Fit      -0.014890
 **** Fit      -0.010550
 **** Fit      -0.019280
 **** Fit      -0.015366
 **** Fit      -0.011653
 **** Fit      -0.032402
 **** Fit      -0.027509
 **** Fit      -0.023195
 **** Fit      -0.019212
 **** Fit      -0.015472
 **** Fit      -0.031569
 **** Fit      -0.026135
 **** Fit      -0.021498
 **** Fit      -0.017368
 **** Fit      -0.036860
 **** Fit      -0.030166
 **** Fit       0.001900
 **** Fit       0.000967
 **** Fit       0.000061
 **** Fit       0.001608
 **** Fit       0.000721
 **** Fit       0.001349
 **** Fit       0.000565
 **** Fit       0.001247
 **** Fit       0.000541
 **** Fit      -0.004366
 **** Fit       0.001332
 **** Fit       0.000634
 **** Fit      -0.041918
 **** Fit      -0.050602
 **** Fit      -0.007408
 **** Fit      -0.003062
 **** Fit       0.002157
 **** Fit       0.001360
 **** Fit       0.000652
 **** Fit      -0.038722
 **** Fit      -0.046073
 **** Fit      -0.014812
 **** Fit      -0.009590
 **** Fit      -0.005321
 **** Fit      -0.001956
 **** Fit       0.002080
 **** Fit       0.001309
 **** Fit       0.000580
 **** Fit      -0.031019
 **** Fit      -0.037075
 **** Fit      -0.043387
 **** Fit      -0.049705
 **** Fit      -0.015673
 **** Fit      -0.010779
 **** Fit      -0.006662
 **** Fit      -0.003335
 **** Fit      -0.000728
 **** Fit       0.002152
 **** Fit       0.001371
 **** Fit       0.000586
 **** Fit      -0.000238
 **** Fit      -0.025129
 **** Fit      -0.030218
 **** Fit      -0.035445
 **** Fit      -0.040571
 **** Fit      -0.045212
 **** Fit      -0.002947
 **** Fit      -0.000658
 **** Fit       0.001087
 **** Fit       0.002230
 **** Fit       0.001458
 **** Fit       0.000630
 **** Fit      -0.000283
 **** Fit      -0.001331
 **** Fit      -0.020007
 **** Fit      -0.024233
 **** Fit      -0.028521
 **** Fit      -0.032637
 **** Fit       0.000921
 **** Fit       0.002024
 **** Fit       0.002808
 **** Fit       0.002773
 **** Fit       0.002164
 **** Fit       0.001445
 **** Fit       0.000616
 **** Fit      -0.000345
 **** Fit      -0.001481
 **** Fit      -0.002853
 **** Fit      -0.006887
 **** Fit      -0.009497
 **** Fit      -0.012533
 **** Fit      -0.015915
 **** Fit      -0.019494
 **** Fit      -0.023071
 **** Fit       0.002111
 **** Fit       0.002574
 **** Fit       0.002788
 **** Fit       0.002761
 **** Fit       0.002510
 **** Fit       0.002061
 **** Fit       0.001439
 **** Fit       0.000653
 **** Fit      -0.000313
 **** Fit      -0.001494
 **** Fit      -0.002940
 **** Fit      -0.004716
 **** Fit      -0.006873
 **** Fit      -0.009398
 **** Fit      -0.012229
 **** Fit      -0.015231
 **** Fit      -0.018192
 **** Fit       0.001927
 **** Fit       0.002105
 **** Fit       0.002055
 **** Fit       0.001784
 **** Fit       0.001302
 **** Fit       0.000609
 **** Fit      -0.000307
 **** Fit      -0.001472
 **** Fit      -0.002928
 **** Fit      -0.004717
 **** Fit      -0.006616
 **** Fit      -0.009160
 **** Fit      -0.011869
 **** Fit       0.001437
 **** Fit       0.001226
 **** Fit       0.000740
 **** Fit      -0.000034
 **** Fit      -0.001125
 **** Fit      -0.002570
 **** Fit      -0.004399
 **** Fit      -0.006112
 **** Fit       0.000009
 **** Fit      -0.000905
 **** Fit      -0.002229
 **** Fit      -0.003981
 **** Fit      -0.038617
 **** Fit      -0.031677
 **** Fit      -0.025122
 **** Fit      -0.019323
 **** Fit      -0.014336
 **** Fit      -0.010125
 **** Fit      -0.006649
 **** Fit      -0.035334
 **** Fit      -0.039202
 **** Fit      -0.041785
 **** Fit      -0.042476
 **** Fit      -0.040894
 **** Fit      -0.037131
 **** Fit      -0.031801
 **** Fit      -0.025805
 **** Fit      -0.019959
 **** Fit      -0.014750
 **** Fit      -0.010351
 **** Fit      -0.006767
 **** Fit      -0.003938
 **** Fit      -0.001770
 **** Fit      -0.000154
 **** Fit      -0.023456
 **** Fit      -0.027218
 **** Fit      -0.030478
 **** Fit      -0.032808
 **** Fit      -0.033733
 **** Fit      -0.032895
 **** Fit      -0.030244
 **** Fit      -0.026137
 **** Fit      -0.021237
 **** Fit      -0.016254
 **** Fit      -0.011708
 **** Fit      -0.007860
 **** Fit      -0.004773
 **** Fit      -0.002407
 **** Fit      -0.000667
 **** Fit       0.000560
 **** Fit       0.001389
 **** Fit      -0.014826
 **** Fit      -0.018230
 **** Fit      -0.021447
 **** Fit      -0.024156
 **** Fit      -0.025945
 **** Fit      -0.026386
 **** Fit      -0.025206
 **** Fit      -0.022459
 **** Fit      -0.018586
 **** Fit      -0.014253
 **** Fit      -0.010089
 **** Fit      -0.006500
 **** Fit      -0.003652
 **** Fit      -0.001541
 **** Fit      -0.000078
 **** Fit       0.000861
 **** Fit       0.001393
 **** Fit       0.001612
 **** Fit      -0.007943
 **** Fit      -0.010767
 **** Fit      -0.013694
 **** Fit      -0.016471
 **** Fit      -0.018760
 **** Fit      -0.020157
 **** Fit      -0.020275
 **** Fit      -0.018916
 **** Fit      -0.016236
 **** Fit      -0.012745
 **** Fit      -0.009093
 **** Fit      -0.005815
 **** Fit      -0.003198
 **** Fit      -0.001308
 **** Fit      -0.000081
 **** Fit       0.000601
 **** Fit       0.000851
 **** Fit       0.000747
 **** Fit       0.000316
 **** Fit      -0.000462
 **** Fit      -0.007370
 **** Fit      -0.009972
 **** Fit      -0.012476
 **** Fit      -0.014458
 **** Fit      -0.015429
 **** Fit      -0.015005
 **** Fit      -0.013142
 **** Fit      -0.010269
 **** Fit      -0.007107
 **** Fit      -0.004303
 **** Fit      -0.002208
 **** Fit      -0.000889
 **** Fit      -0.000261
 **** Fit      -0.000207
 **** Fit      -0.000654
 **** Fit      -0.001587
 **** Fit      -0.003033
 **** Fit      -0.004990
 **** Fit      -0.006718
 **** Fit      -0.009165
 **** Fit      -0.010978
 **** Fit      -0.011346
 **** Fit      -0.009918
 **** Fit      -0.007255
 **** Fit      -0.004495
 **** Fit      -0.002516
 **** Fit      -0.001599
 **** Fit      -0.001677
 **** Fit      -0.002636
 **** Fit      -0.004385
 **** Fit      -0.006054
 **** Fit      -0.007976
 **** Fit      -0.007399
 **** Fit      -0.004893
 **** Fit      -0.003313
 **** Fit      -0.003881
 **** Fit      -0.005430
 **** Fit       0.005964
 **** Fit       0.005107
 **** Fit       0.004189
 **** Fit       0.003248
 **** Fit       0.002339
 **** Fit       0.006712
 **** Fit       0.006107
 **** Fit       0.005366
 **** Fit       0.004535
 **** Fit       0.003656
 **** Fit       0.002772
 **** Fit       0.006767
 **** Fit       0.007044
 **** Fit       0.006886
 **** Fit       0.006451
 **** Fit       0.005833
 **** Fit       0.005091
 **** Fit       0.004269
 **** Fit       0.003409
 **** Fit       0.002561
 **** Fit       0.002853
 **** Fit       0.005147
 **** Fit       0.006343
 **** Fit       0.006831
 **** Fit       0.006860
 **** Fit       0.006586
 **** Fit       0.006106
 **** Fit       0.005482
 **** Fit       0.004757
 **** Fit       0.003972
 **** Fit       0.003167
 **** Fit       0.002395
 **** Fit      -0.003279
 **** Fit       0.001105
 **** Fit       0.003859
 **** Fit       0.005474
 **** Fit       0.006311
 **** Fit       0.006624
 **** Fit       0.006579
 **** Fit       0.006284
 **** Fit       0.005813
 **** Fit       0.005214
 **** Fit       0.004528
 **** Fit       0.003792
 **** Fit       0.003049
 **** Fit       0.002353
 **** Fit      -0.000115
 **** Fit       0.002840
 **** Fit       0.004671
 **** Fit       0.005703
 **** Fit       0.006177
 **** Fit       0.006260
 **** Fit       0.006068
 **** Fit       0.005677
 **** Fit       0.005142
 **** Fit       0.004509
 **** Fit       0.003817
 **** Fit       0.003115
 **** Fit       0.002458
 **** Fit       0.000611
 **** Fit       0.003030
 **** Fit       0.004539
 **** Fit       0.005377
 **** Fit       0.005732
 **** Fit       0.005740
 **** Fit       0.005496
 **** Fit       0.005071
 **** Fit       0.004518
 **** Fit       0.003887
 **** Fit       0.003228
 **** Fit       0.002602
 **** Fit       0.003029
 **** Fit       0.004240
 **** Fit       0.004904
 **** Fit       0.005156
 **** Fit       0.005104
 **** Fit       0.004828
 **** Fit       0.004392
 **** Fit       0.003852
 **** Fit       0.003265
 **** Fit       0.002693
 **** Fit       0.003089
 **** Fit       0.003982
 **** Fit       0.004409
 **** Fit       0.004475
 **** Fit       0.004275
 **** Fit       0.003888
 **** Fit       0.003389
 **** Fit       0.002852
 **** Fit       0.002973
 **** Fit       0.003567
 **** Fit       0.003768
 **** Fit       0.003663
 **** Fit       0.003344
 **** Fit       0.002907
 **** Fit      -0.008348
 **** Fit      -0.011805
 **** Fit      -0.016039
 **** Fit      -0.003375
 **** Fit      -0.005576
 **** Fit      -0.008598
 **** Fit      -0.011872
 **** Fit      -0.015906
 **** Fit      -0.020821
 **** Fit      -0.026719
 **** Fit      -0.033649
 **** Fit      -0.000804
 **** Fit      -0.002170
 **** Fit      -0.003857
 **** Fit      -0.005964
 **** Fit      -0.008571
 **** Fit      -0.011579
 **** Fit      -0.015257
 **** Fit      -0.019726
 **** Fit      -0.025120
 **** Fit      -0.031574
 **** Fit      -0.039207
 **** Fit      -0.000092
 **** Fit      -0.001203
 **** Fit      -0.002524
 **** Fit      -0.004136
 **** Fit      -0.006122
 **** Fit      -0.008421
 **** Fit      -0.011320
 **** Fit      -0.014852
 **** Fit      -0.019140
 **** Fit      -0.024320
 **** Fit      -0.030542
 **** Fit      -0.037958
 **** Fit      -0.046704
 **** Fit      -0.000151
 **** Fit      -0.001247
 **** Fit      -0.002546
 **** Fit      -0.004122
 **** Fit      -0.006053
 **** Fit      -0.008239
 **** Fit      -0.010969
 **** Fit      -0.014267
 **** Fit      -0.018236
 **** Fit      -0.022994
 **** Fit      -0.028668
 **** Fit      -0.035383
 **** Fit      -0.043244
 **** Fit      -0.000245
 **** Fit      -0.001330
 **** Fit      -0.002603
 **** Fit      -0.004133
 **** Fit      -0.005987
 **** Fit      -0.008077
 **** Fit      -0.010679
 **** Fit      -0.013797
 **** Fit      -0.017517
 **** Fit      -0.021934
 **** Fit      -0.027145
 **** Fit      -0.033234
 **** Fit      -0.040252
 **** Fit      -0.000263
 **** Fit      -0.001352
 **** Fit      -0.002614
 **** Fit      -0.004113
 **** Fit      -0.005912
 **** Fit      -0.007961
 **** Fit      -0.010549
 **** Fit      -0.013638
 **** Fit      -0.017306
 **** Fit      -0.021630
 **** Fit      -0.026675
 **** Fit      -0.032475
 **** Fit      -0.038989
 **** Fit      -0.000086
 **** Fit      -0.001211
 **** Fit      -0.002494
 **** Fit      -0.004003
 **** Fit      -0.005803
 **** Fit      -0.007901
 **** Fit      -0.010507
 **** Fit      -0.013607
 **** Fit      -0.017264
 **** Fit      -0.021527
 **** Fit      -0.026411
 **** Fit      -0.031861
 **** Fit      -0.001026
 **** Fit      -0.002354
 **** Fit      -0.003895
 **** Fit      -0.005720
 **** Fit      -0.007887
 **** Fit      -0.010462
 **** Fit      -0.013494
 **** Fit      -0.017019
 **** Fit      -0.021041
 **** Fit      -0.025500
 **** Fit      -0.000929
 **** Fit      -0.002308
 **** Fit      -0.003878
 **** Fit      -0.005714
 **** Fit      -0.007897
 **** Fit      -0.010576
 **** Fit      -0.013702
 **** Fit      -0.017268
 **** Fit      -0.021185
 **** Fit      -0.002036
 **** Fit      -0.003700
 **** Fit      -0.005627
 **** Fit      -0.007892
 **** Fit      -0.010623
 **** Fit      -0.013735
 **** Fit      -0.017125
 **** Fit      -0.005550
 -----------------------------------------------------------------
 Leave Link  602 at Wed Jul 10 12:29:24 2024, MaxMem=  3221225472 cpu:               8.2 elap:               0.3

 Test job not archived.
 1\1\FAU-PILGRIM\SP\RHF\GenECP\C13H25I1N2O4\MATTHIASABLE\10-Jul-2024\0\
 \# HF/GenECP SCF=tight Test Pop=(MK,ReadRadii) iop(6/33=2, 6/42=6)\\am
 b2oniom\\0,1\I,0,31.23,33.92,37.54\C,0,38.61,37.04,38.74\H,0,38.19,36.
 41,39.54\H,0,37.95,37.74,38.22\H,0,39.53,37.44,39.19\O,0,39.09,36.25,3
 7.59\C,0,40.31,35.47,37.74\H,0,41.18,36.1,37.52\H,0,40.35,34.89,38.67\
 C,0,40.31,34.51,36.56\H,0,40.13,35.1,35.66\H,0,41.28,34.03,36.39\O,0,3
 9.29,33.53,36.78\C,0,38.92,32.63,35.74\H,0,38.07,32.07,36.16\H,0,39.71
 ,31.97,35.37\C,0,38.39,33.46,34.59\H,0,38.22,32.79,33.74\H,0,39.16,34.
 08,34.13\N,0,37.16,34.2,34.81\C,0,37.21,35.6,34.83\H,0,38.,36.32,34.7\
 N,0,35.91,35.92,35.12\C,0,35.13,34.78,35.4\H,0,34.11,34.84,35.74\C,0,3
 5.95,33.68,35.17\H,0,35.76,32.63,35.36\C,0,35.33,37.25,35.03\H,0,35.94
 ,37.89,35.68\H,0,35.54,37.63,34.02\C,0,33.85,37.44,35.44\H,0,33.65,37.
 06,36.45\H,0,33.7,38.52,35.43\O,0,33.03,36.95,34.41\C,0,31.69,37.32,34
 .56\H,0,31.57,38.39,34.78\H,0,31.25,36.7,35.35\C,0,31.,37.16,33.19\H,0
 ,30.,37.6,33.29\H,0,31.64,37.68,32.47\O,0,30.94,35.79,33.\C,0,30.3,35.
 37,31.75\H,0,30.7,34.36,31.6\H,0,30.7,36.02,30.96\H,0,29.21,35.46,31.8
 1\\Version=ES64L-G16RevA.03\State=1-A\HF=-1211.6617793\RMSD=6.857e-09\
 Dipole=9.069321,2.6877486,-3.894931\Quadrupole=-1.4291553,6.4036559,-4
 .9745006,-20.1774457,20.0898083,9.9444077\PG=C01 [X(C13H25I1N2O4)]\\@


 THE PROGRESS OF RIVERS TO THE SEA IS NOT AS RAPID
 AS THAT OF MAN TO ERROR.
                                              -- VOLTAIRE
 Job cpu time:       0 days  0 hours  4 minutes 30.8 seconds.
 Elapsed time:       0 days  0 hours  0 minutes 11.4 seconds.
 File lengths (MBytes):  RWF=     69 Int=      0 D2E=      0 Chk=      8 Scr=      1
 Normal termination of Gaussian 16 at Wed Jul 10 12:29:24 2024.
